
                                 *****************
                                 * O   R   C   A *
                                 *****************

           --- An Ab Initio, DFT and Semiempirical electronic structure package ---

                  #######################################################
                  #                        -***-                        #
                  #          Department of theory and spectroscopy      #
                  #               Directorship: Frank Neese             #
                  #        Max Planck Institute fuer Kohlenforschung    #
                  #                Kaiser Wilhelm Platz 1               #
                  #                 D-45470 Muelheim/Ruhr               #
                  #                      Germany                        #
                  #                                                     #
                  #                  All rights reserved                #
                  #                        -***-                        #
                  #######################################################


                         Program Version 4.2.1 -  RELEASE  -


 With contributions from (in alphabetic order):
   Daniel Aravena         : Magnetic Suceptibility
   Michael Atanasov       : Ab Initio Ligand Field Theory (pilot matlab implementation)
   Alexander A. Auer      : GIAO ZORA, VPT2
   Ute Becker             : Parallelization
   Giovanni Bistoni       : ED, misc. LED, open-shell LED, HFLD
   Martin Brehm           : Molecular dynamics
   Dmytro Bykov           : SCF Hessian
   Vijay G. Chilkuri      : MRCI spin determinant printing, contributions to CSF-ICE
   Dipayan Datta          : RHF DLPNO-CCSD density
   Achintya Kumar Dutta   : EOM-CC, STEOM-CC
   Dmitry Ganyushin       : Spin-Orbit,Spin-Spin,Magnetic field MRCI
   Miquel Garcia          : C-PCM Hessian, Gaussian charge scheme
   Yang Guo               : DLPNO-NEVPT2, CIM, IAO-localization
   Andreas Hansen         : Spin unrestricted coupled pair/coupled cluster methods
   Benjamin Helmich-Paris : CASSCF linear response (MC-RPA)
   Lee Huntington         : MR-EOM, pCC
   Robert Izsak           : Overlap fitted RIJCOSX, COSX-SCS-MP3, EOM
   Christian Kollmar      : KDIIS, OOCD, Brueckner-CCSD(T), CCSD density
   Simone Kossmann        : Meta GGA functionals, TD-DFT gradient, OOMP2, MP2 Hessian
   Martin Krupicka        : AUTO-CI
   Lucas Lang             : DCDCAS
   Dagmar Lenk            : GEPOL surface, SMD
   Dimitrios Liakos       : Extrapolation schemes; Compound Job, initial MDCI parallelization
   Dimitrios Manganas     : Further ROCIS development; embedding schemes
   Dimitrios Pantazis     : SARC Basis sets
   Taras Petrenko         : DFT Hessian,TD-DFT gradient, ASA, ECA, R-Raman, ABS, FL, XAS/XES, NRVS
   Peter Pinski           : DLPNO-MP2, DLPNO-MP2 Gradient
   Christoph Reimann      : Effective Core Potentials
   Marius Retegan         : Local ZFS, SOC
   Christoph Riplinger    : Optimizer, TS searches, QM/MM, DLPNO-CCSD(T), (RO)-DLPNO pert. Triples
   Tobias Risthaus        : Range-separated hybrids, TD-DFT gradient, RPA, STAB
   Michael Roemelt        : Original ROCIS implementation
   Masaaki Saitow         : Open-shell DLPNO-CCSD energy and density
   Barbara Sandhoefer     : DKH picture change effects
   Avijit Sen             : IP-ROCIS
   Kantharuban Sivalingam : CASSCF convergence, NEVPT2, FIC-MRCI
   Bernardo de Souza      : ESD, SOC TD-DFT
   Georgi Stoychev        : AutoAux, RI-MP2 NMR
   Willem Van den Heuvel  : Paramagnetic NMR
   Boris Wezisla          : Elementary symmetry handling
   Frank Wennmohs         : Technical directorship


 We gratefully acknowledge several colleagues who have allowed us to
 interface, adapt or use parts of their codes:
   Stefan Grimme, W. Hujo, H. Kruse,             : VdW corrections, initial TS optimization,
                  C. Bannwarth                     DFT functionals, gCP, sTDA/sTD-DF
   Ed Valeev, F. Pavosevic, A. Kumar             : LibInt (2-el integral package), F12 methods
   Garnet Chan, S. Sharma, J. Yang, R. Olivares  : DMRG
   Ulf Ekstrom                                   : XCFun DFT Library
   Mihaly Kallay                                 : mrcc  (arbitrary order and MRCC methods)
   Andreas Klamt, Michael Diedenhofen            : otool_cosmo (COSMO solvation model)
   Jiri Pittner, Ondrej Demel                    : Mk-CCSD
   Frank Weinhold                                : gennbo (NPA and NBO analysis)
   Christopher J. Cramer and Donald G. Truhlar   : smd solvation model
   Lars Goerigk                                  : TD-DFT with DH, B97 family of functionals
   V. Asgeirsson, H. Jonsson                     : NEB implementation
   FAccTs GmbH                                   : IRC, NEB, NEB-TS, Multilevel, MM, QM/MM, CI optimization
   S Lehtola, MJT Oliveira, MAL Marques          : LibXC Library


 Your calculation uses the libint2 library for the computation of 2-el integrals
 For citations please refer to: http://libint.valeyev.net

 Your ORCA version has been built with support for libXC version: 4.2.3
 For citations please refer to: https://tddft.org/programs/libxc/

 This ORCA versions uses:
   CBLAS   interface :  Fast vector & matrix operations
   LAPACKE interface :  Fast linear algebra routines
   SCALAPACK package :  Parallel linear algebra routines


Your calculation utilizes the atom-pairwise dispersion correction
with the Becke-Johnson damping scheme (D3BJ)
Cite in your paper:
S.Grimme, S.Ehrlich, L.Goerigk, J Comput Chem, (2011), 32, 1456–1465 
S.Grimme, J.Antony, S.Ehrlich and H.Krieg, J.Chem.Phys., 132, (2010), 154104 
   

----- Orbital basis set information -----
Your calculation utilizes the basis: aug-pc-2
   H, C-F              : F. Jensen, J. Chem. Phys. 115, 9113 (2001).
                         F. Jensen, J. Chem. Phys. 116, 7372 (2002).
                         F. Jensen, J. Chem. Phys. 117, 9234 (2002).
   Si-Cl               : F. Jensen, T. Helgaker, J. Chem. Phys. 121, 3463 (2004).
   He-B, Ne-Mg, Al, Ar : F. Jensen, J. Phys. Chem. A 111, 11198 (2007).
   K, Ca, Ga-Kr        : F. Jensen, J. Chem. Phys. 136, 094110 (2012).
   Sc-Zn               : F. Jensen, J. Chem. Phys. 138, 014107 (2013).

----- AuxJ basis set information -----
Your calculation utilizes the auxiliary basis: def2/J
   F. Weigend, Phys. Chem. Chem. Phys. 8, 1057 (2006).

================================================================================
                                        WARNINGS
                       Please study these warnings very carefully!
================================================================================


INFO   : the flag for use of LIBINT has been found!

================================================================================
                                       INPUT FILE
================================================================================
NAME = boron_0_2.inp
|  1> ! sp uks wb97x-D3BJ aug-pc-2 grid5 finalgrid6 rijcosx tightscf moread CPCM(acetonitrile)
|  2> 
|  3> %moinp "/cluster/home/ambr/projects/marius_tests_application/vacuum/boron_0_2.gbw"
|  4> 
|  5> %PAL NProcs 20 END
|  6> 
|  7> %SCF
|  8> 	directresetfreq 1
|  9> END
| 10> * xyz 0 2
| 11> C -1.78832884912439 2.13577011764125 -1.32804254202865
| 12> C -3.03148792869992 1.98660481949655 -0.45955295260085
| 13> C -0.53595737618157 2.03320511871958 -0.46632047856504
| 14> H -1.80799089384276 3.10235586221731 -1.83541040463795
| 15> H -1.77418233935773 1.37575592085383 -2.11299319666902
| 16> C -3.18240100960512 0.60899654774115 0.19290523873046
| 17> H -3.93739900064290 2.18647442629504 -1.04269177596711
| 18> H -3.00021038123697 2.74753601274346 0.32751656531292
| 19> C -0.33096587288753 0.65874252850555 0.17927357636790
| 20> H -0.59381299129876 2.78956411153207 0.32352782608357
| 21> H 0.35813949567343 2.27014319296594 -1.05356974051927
| 22> B -1.74494094921610 0.14560033098904 0.85236897914616
| 23> C 0.75522058889582 0.75829060427854 1.25343648510060
| 24> H 0.45520441292803 1.42693839840778 2.06124286099496
| 25> H 1.67207782759324 1.16104752425311 0.80915123908110
| 26> H 0.97460664828250 -0.21582047872474 1.69377153265420
| 27> C 0.09457444130146 -0.36715884233447 -0.87929033124357
| 28> H -0.67288467294220 -0.54680357911475 -1.62973258695437
| 29> H 0.35374618446137 -1.32526641555613 -0.42558844845704
| 30> H 0.97829008267851 0.01445619523245 -1.40100758437112
| 31> C -4.26073830865529 0.67816945215953 1.27734276126232
| 32> H -3.97217792819478 1.35504177114715 2.08254300289099
| 33> H -4.44883150349149 -0.30149006967966 1.71972280991877
| 34> H -5.19196723387662 1.05564380221334 0.84055174418750
| 35> C -3.58297346238787 -0.43556261576824 -0.85688257027681
| 36> H -2.81900585263367 -0.58531736453156 -1.61772510074728
| 37> H -4.48877479122560 -0.09262129446423 -1.36760516809403
| 38> H -3.79666754536491 -1.40159361044555 -0.39599032332701
| 39> O -1.72542079094809 -0.60961246677337 1.88362858272764
| 40> *
| 41> 
| 42>                          ****END OF INPUT****
================================================================================

                       ****************************
                       * Single Point Calculation *
                       ****************************

---------------------------------
CARTESIAN COORDINATES (ANGSTROEM)
---------------------------------
  C     -1.788329    2.135770   -1.328043
  C     -3.031488    1.986605   -0.459553
  C     -0.535957    2.033205   -0.466320
  H     -1.807991    3.102356   -1.835410
  H     -1.774182    1.375756   -2.112993
  C     -3.182401    0.608997    0.192905
  H     -3.937399    2.186474   -1.042692
  H     -3.000210    2.747536    0.327517
  C     -0.330966    0.658743    0.179274
  H     -0.593813    2.789564    0.323528
  H      0.358139    2.270143   -1.053570
  B     -1.744941    0.145600    0.852369
  C      0.755221    0.758291    1.253436
  H      0.455204    1.426938    2.061243
  H      1.672078    1.161048    0.809151
  H      0.974607   -0.215820    1.693772
  C      0.094574   -0.367159   -0.879290
  H     -0.672885   -0.546804   -1.629733
  H      0.353746   -1.325266   -0.425588
  H      0.978290    0.014456   -1.401008
  C     -4.260738    0.678169    1.277343
  H     -3.972178    1.355042    2.082543
  H     -4.448832   -0.301490    1.719723
  H     -5.191967    1.055644    0.840552
  C     -3.582973   -0.435563   -0.856883
  H     -2.819006   -0.585317   -1.617725
  H     -4.488775   -0.092621   -1.367605
  H     -3.796668   -1.401594   -0.395990
  O     -1.725421   -0.609612    1.883629

----------------------------
CARTESIAN COORDINATES (A.U.)
----------------------------
  NO LB      ZA    FRAG     MASS         X           Y           Z
   0 C     6.0000    0    12.011   -3.379452    4.036021   -2.509637
   1 C     6.0000    0    12.011   -5.728682    3.754139   -0.868429
   2 C     6.0000    0    12.011   -1.012813    3.842201   -0.881218
   3 H     1.0000    0     1.008   -3.416608    5.862603   -3.468423
   4 H     1.0000    0     1.008   -3.352719    2.599802   -3.992978
   5 C     6.0000    0    12.011   -6.013866    1.150837    0.364538
   6 H     1.0000    0     1.008   -7.440606    4.131838   -1.970402
   7 H     1.0000    0     1.008   -5.669576    5.192091    0.618917
   8 C     6.0000    0    12.011   -0.625435    1.244843    0.338778
   9 H     1.0000    0     1.008   -1.122144    5.271512    0.611379
  10 H     1.0000    0     1.008    0.676786    4.289949   -1.990958
  11 B     5.0000    0    10.810   -3.297461    0.275145    1.610744
  12 C     6.0000    0    12.011    1.427160    1.432962    2.368652
  13 H     1.0000    0     1.008    0.860212    2.696523    3.895185
  14 H     1.0000    0     1.008    3.159769    2.194062    1.529074
  15 H     1.0000    0     1.008    1.841740   -0.407842    3.200764
  16 C     6.0000    0    12.011    0.178720   -0.693830   -1.661618
  17 H     1.0000    0     1.008   -1.271568   -1.033309   -3.079748
  18 H     1.0000    0     1.008    0.668483   -2.504391   -0.804246
  19 H     1.0000    0     1.008    1.848700    0.027318   -2.647521
  20 C     6.0000    0    12.011   -8.051629    1.281555    2.413828
  21 H     1.0000    0     1.008   -7.506328    2.560658    3.935436
  22 H     1.0000    0     1.008   -8.407073   -0.569734    3.249805
  23 H     1.0000    0     1.008   -9.811396    1.994878    1.588413
  24 C     6.0000    0    12.011   -6.770839   -0.823094   -1.619273
  25 H     1.0000    0     1.008   -5.327149   -1.106090   -3.057057
  26 H     1.0000    0     1.008   -8.482555   -0.175029   -2.584399
  27 H     1.0000    0     1.008   -7.174662   -2.648628   -0.748313
  28 O     8.0000    0    15.999   -3.260573   -1.152001    3.559542

--------------------------------
INTERNAL COORDINATES (ANGSTROEM)
--------------------------------
 C      0   0   0     0.000000000000     0.00000000     0.00000000
 C      1   0   0     1.523800823679     0.00000000     0.00000000
 C      1   2   0     1.523653110096   109.97683939     0.00000000
 H      1   2   3     1.091831830287   109.68334950   239.26279882
 H      1   2   3     1.092688992018   110.60402675   122.22047967
 C      2   1   3     1.531757487278   114.27954685   294.91767794
 H      2   1   3     1.095752534703   110.69002168   172.70647704
 H      2   1   3     1.095204543389   108.55912320    56.48969325
 C      3   1   2     1.532305652305   114.11854756    65.30291112
 H      3   1   2     1.095119419317   108.54157885   303.76267085
 H      3   1   2     1.095632494477   110.67490901   187.49258264
 B      9   3   1     1.647937454090   109.67046106   313.43039752
 C      9   3   1     1.530861458019   109.40364817   192.66807981
 H     13   9   3     1.090711107201   111.36904116    63.22436378
 H     13   9   3     1.095549958957   109.46005315   304.15869654
 H     13   9   3     1.091291711316   111.57491703   183.58032590
 C      9   3   1     1.534312786947   110.25412824    72.41609904
 H     17   9   3     1.088314891309   112.98714785   295.51255251
 H     17   9   3     1.091322827014   111.47273610   173.65475419
 H     17   9   3     1.094884589316   108.63635052    54.51418113
 C      6   2   1     1.530882412697   109.29884966   166.94119544
 H     21   6   2     1.090766087895   111.38383241   296.36121723
 H     21   6   2     1.091243298318   111.59334120   176.00031315
 H     21   6   2     1.095655323865   109.38105977    55.39763309
 C      6   2   1     1.534150116495   110.27978366   287.20105243
 H     25   6   2     1.088556084776   112.87341952    64.07389060
 H     25   6   2     1.094953135574   108.77902283   305.08324932
 H     25   6   2     1.091468142950   111.39485563   185.91476334
 O     12   9   3     1.278367621798   120.02298132   210.37167960

---------------------------
INTERNAL COORDINATES (A.U.)
---------------------------
 C      0   0   0     0.000000000000     0.00000000     0.00000000
 C      1   0   0     2.879566239398     0.00000000     0.00000000
 C      1   2   0     2.879287101179   109.97683939     0.00000000
 H      1   2   3     2.063263143541   109.68334950   239.26279882
 H      1   2   3     2.064882944465   110.60402675   122.22047967
 C      2   1   3     2.894602154539   114.27954685   294.91767794
 H      2   1   3     2.070672201138   110.69002168   172.70647704
 H      2   1   3     2.069636647632   108.55912320    56.48969325
 C      3   1   2     2.895638036316   114.11854756    65.30291112
 H      3   1   2     2.069475786448   108.54157885   303.76267085
 H      3   1   2     2.070445357987   110.67490901   187.49258264
 B      9   3   1     3.114150474061   109.67046106   313.43039752
 C      9   3   1     2.892908904632   109.40364817   192.66807981
 H     13   9   3     2.061145283836   111.36904116    63.22436378
 H     13   9   3     2.070289388457   109.46005315   304.15869654
 H     13   9   3     2.062242466606   111.57491703   183.58032590
 C      9   3   1     2.899430971103   110.25412824    72.41609904
 H     17   9   3     2.056617092042   112.98714785   295.51255251
 H     17   9   3     2.062301266753   111.47273610   173.65475419
 H     17   9   3     2.069032022059   108.63635052    54.51418113
 C      6   2   1     2.892948503233   109.29884966   166.94119544
 H     21   6   2     2.061249182290   111.38383241   296.36121723
 H     21   6   2     2.062150979297   111.59334120   176.00031315
 H     21   6   2     2.070488499278   109.38105977    55.39763309
 C      6   2   1     2.899123568498   110.27978366   287.20105243
 H     25   6   2     2.057072881641   112.87341952    64.07389060
 H     25   6   2     2.069161555713   108.77902283   305.08324932
 H     25   6   2     2.062575874075   111.39485563   185.91476334
 O     12   9   3     2.415764703671   120.02298132   210.37167960

---------------------
BASIS SET INFORMATION
---------------------
There are 4 groups of distinct atoms

 Group   1 Type C   : 17s7p3d2f contracted to 5s4p3d2f pattern {77111/4111/111/11}
 Group   2 Type H   : 7s3p2d contracted to 4s3p2d pattern {4111/111/11}
 Group   3 Type B   : 17s7p3d2f contracted to 5s4p3d2f pattern {77111/4111/111/11}
 Group   4 Type O   : 17s7p3d2f contracted to 5s4p3d2f pattern {77111/4111/111/11}

Atom   0C    basis set group =>   1
Atom   1C    basis set group =>   1
Atom   2C    basis set group =>   1
Atom   3H    basis set group =>   2
Atom   4H    basis set group =>   2
Atom   5C    basis set group =>   1
Atom   6H    basis set group =>   2
Atom   7H    basis set group =>   2
Atom   8C    basis set group =>   1
Atom   9H    basis set group =>   2
Atom  10H    basis set group =>   2
Atom  11B    basis set group =>   3
Atom  12C    basis set group =>   1
Atom  13H    basis set group =>   2
Atom  14H    basis set group =>   2
Atom  15H    basis set group =>   2
Atom  16C    basis set group =>   1
Atom  17H    basis set group =>   2
Atom  18H    basis set group =>   2
Atom  19H    basis set group =>   2
Atom  20C    basis set group =>   1
Atom  21H    basis set group =>   2
Atom  22H    basis set group =>   2
Atom  23H    basis set group =>   2
Atom  24C    basis set group =>   1
Atom  25H    basis set group =>   2
Atom  26H    basis set group =>   2
Atom  27H    basis set group =>   2
Atom  28O    basis set group =>   4
---------------------------------
AUXILIARY/J BASIS SET INFORMATION
---------------------------------
There are 4 groups of distinct atoms

 Group   1 Type C   : 12s5p4d2f1g contracted to 6s4p3d1f1g pattern {711111/2111/211/2/1}
 Group   2 Type H   : 5s2p1d contracted to 3s1p1d pattern {311/2/1}
 Group   3 Type B   : 12s5p4d2f1g contracted to 6s4p3d1f1g pattern {711111/2111/211/2/1}
 Group   4 Type O   : 12s5p4d2f1g contracted to 6s4p3d1f1g pattern {711111/2111/211/2/1}

Atom   0C    basis set group =>   1
Atom   1C    basis set group =>   1
Atom   2C    basis set group =>   1
Atom   3H    basis set group =>   2
Atom   4H    basis set group =>   2
Atom   5C    basis set group =>   1
Atom   6H    basis set group =>   2
Atom   7H    basis set group =>   2
Atom   8C    basis set group =>   1
Atom   9H    basis set group =>   2
Atom  10H    basis set group =>   2
Atom  11B    basis set group =>   3
Atom  12C    basis set group =>   1
Atom  13H    basis set group =>   2
Atom  14H    basis set group =>   2
Atom  15H    basis set group =>   2
Atom  16C    basis set group =>   1
Atom  17H    basis set group =>   2
Atom  18H    basis set group =>   2
Atom  19H    basis set group =>   2
Atom  20C    basis set group =>   1
Atom  21H    basis set group =>   2
Atom  22H    basis set group =>   2
Atom  23H    basis set group =>   2
Atom  24C    basis set group =>   1
Atom  25H    basis set group =>   2
Atom  26H    basis set group =>   2
Atom  27H    basis set group =>   2
Atom  28O    basis set group =>   4


           ************************************************************
           *        Program running with 20 parallel MPI-processes    *
           *              working on a common directory               *
           ************************************************************
------------------------------------------------------------------------------
                           ORCA GTO INTEGRAL CALCULATION
                           -- RI-GTO INTEGRALS CHOSEN --
------------------------------------------------------------------------------

                         BASIS SET STATISTICS AND STARTUP INFO

Gaussian basis set:
 # of primitive gaussian shells          ...  535
 # of primitive gaussian functions       ... 1205
 # of contracted shells                  ...  316
 # of contracted basis functions         ...  920
 Highest angular momentum                ...    3
 Maximum contraction depth               ...    7
Auxiliary gaussian basis set:
 # of primitive gaussian shells          ...  408
 # of primitive gaussian functions       ... 1058
 # of contracted shells                  ...  255
 # of contracted aux-basis functions     ...  737
 Highest angular momentum                ...    4
 Maximum contraction depth               ...    7
Ratio of auxiliary to basis functions    ...  0.80
Integral package used                  ... LIBINT
 One Electron integrals                  ... done
 Ordering auxiliary basis shells         ... done
 Integral threshhold             Thresh  ...  2.500e-11
 Primitive cut-off               TCut    ...  2.500e-12
 Pre-screening matrix                    ... done
 Shell pair data                         ... 
 Ordering of the shell pairs             ... done (   0.010 sec) 47557 of 50086 pairs
 Determination of significant pairs      ... done (   0.000 sec)
 Creation of shell pair data             ... done (   0.008 sec)
 Storage of shell pair data              ... done (   0.030 sec)
 Shell pair data done in (   0.049 sec)
 Computing two index integrals           ... done
 Cholesky decomposition of the V-matrix  ... done


Timings:
 Total evaluation time                   ...   1.428 sec (  0.024 min)
 One electron matrix time                ...   0.488 sec (  0.008 min) = 34.2%
 Schwartz matrix evaluation time         ...   0.826 sec (  0.014 min) = 57.8%
 Two index repulsion integral time       ...   0.018 sec (  0.000 min) =  1.3%
 Cholesky decomposition of V             ...   0.026 sec (  0.000 min) =  1.8%
 Three index repulsion integral time     ...   0.000 sec (  0.000 min) =  0.0%



           ************************************************************
           *        Program running with 20 parallel MPI-processes    *
           *              working on a common directory               *
           ************************************************************
-------------------------------------------------------------------------------
                                 ORCA SCF
-------------------------------------------------------------------------------

------------
SCF SETTINGS
------------
Hamiltonian:
 Density Functional     Method          .... DFT(GTOs)
 Exchange Functional    Exchange        .... WB97X-V
 Correlation Functional Correlation     .... WB97X-V
 Gradients option       PostSCFGGA      .... off
 Hybrid DFT is turned on
   Fraction HF Exchange ScalHFX         ....  0.167000
   Scaling of DF-GGA-X  ScalDFX         ....  0.000000
   Scaling of DF-GGA-C  ScalDFC         ....  1.000000
   Scaling of DF-LDA-C  ScalLDAC        ....  1.000000
   Perturbative correction              ....  0.000000
   Density functional embedding theory  .... OFF
 Long-range corrected/Screened/Range-Separated Hybrid DFT is turned on
   Amount of maximum screened exact exchange              ....  0.833000
   Range separation parameter mu (erf(mu*r12)/r12)        ....  0.300000
 RI-approximation to the Coulomb term is turned on
   Number of auxiliary basis functions  .... 737
   RIJ-COSX (HFX calculated with COS-X)).... on


General Settings:
 Integral files         IntName         .... boron_0_2
 Hartree-Fock type      HFTyp           .... UHF
 Total Charge           Charge          ....    0
 Multiplicity           Mult            ....    2
 Number of Electrons    NEL             ....   85
 Basis Dimension        Dim             ....  920
 Nuclear Repulsion      ENuc            ....    662.2741613450 Eh

Convergence Acceleration:
 DIIS                   CNVDIIS         .... on
   Start iteration      DIISMaxIt       ....    12
   Startup error        DIISStart       ....  0.200000
   # of expansion vecs  DIISMaxEq       ....     5
   Bias factor          DIISBfac        ....   1.050
   Max. coefficient     DIISMaxC        ....  10.000
 Newton-Raphson         CNVNR           .... off
 SOSCF                  CNVSOSCF        .... off
 Level Shifting         CNVShift        .... on
   Level shift para.    LevelShift      ....    0.2500
   Turn off err/grad.   ShiftErr        ....    0.0010
 Zerner damping         CNVZerner       .... off
 Static damping         CNVDamp         .... on
   Fraction old density DampFac         ....    0.7000
   Max. Damping (<1)    DampMax         ....    0.9800
   Min. Damping (>=0)   DampMin         ....    0.0000
   Turn off err/grad.   DampErr         ....    0.1000
 Fernandez-Rico         CNVRico         .... off

SCF Procedure:
 Maximum # iterations   MaxIter         ....   125
 SCF integral mode      SCFMode         .... Direct
   Integral package                     .... LIBINT
 Reset frequency        DirectResetFreq ....     1
 Integral Threshold     Thresh          ....  2.500e-11 Eh
 Primitive CutOff       TCut            ....  2.500e-12 Eh

Convergence Tolerance:
 Convergence Check Mode ConvCheckMode   .... Total+1el-Energy
 Convergence forced     ConvForced      .... 0
 Energy Change          TolE            ....  1.000e-08 Eh
 1-El. energy change                    ....  1.000e-05 Eh
 DIIS Error             TolErr          ....  5.000e-07


Diagonalization of the overlap matrix:
Smallest eigenvalue                        ... 4.693e-08
Time for diagonalization                   ...    0.213 sec
Threshold for overlap eigenvalues          ... 1.000e-08
Number of eigenvalues below threshold      ... 0
Time for construction of square roots      ...    0.127 sec
Total time needed                          ...    0.343 sec

---------------------
INITIAL GUESS: MOREAD
---------------------
Guess MOs are being read from file: /cluster/home/ambr/projects/marius_tests_application/vacuum/boron_0_2.gbw
Input Geometry matches current geometry (good)
Input basis set matches current basis set (good)
MOs were renormalized
MOs were reorthogonalized (Cholesky)
                      ------------------
                      INITIAL GUESS DONE (   0.9 sec)
                      ------------------
-------------------
DFT GRID GENERATION
-------------------

General Integration Accuracy     IntAcc      ...  5.010
Radial Grid Type                 RadialGrid  ... Gauss-Chebyshev
Angular Grid (max. acc.)         AngularGrid ... Lebedev-434
Angular grid pruning method      GridPruning ... 3 (G Style)
Weight generation scheme         WeightScheme... Becke
Basis function cutoff            BFCut       ...    1.0000e-11
Integration weight cutoff        WCut        ...    1.0000e-14
Grids for H and He will be reduced by one unit

# of grid points (after initial pruning)     ... 238170 (   0.0 sec)
# of grid points (after weights+screening)   ... 206545 (   0.1 sec)
nearest neighbour list constructed           ...    0.0 sec
Grid point re-assignment to atoms done       ...    0.1 sec
Grid point division into batches done        ...    1.4 sec
Reduced shell lists constructed in    1.8 sec

Total number of grid points                  ...   206545
Total number of batches                      ...     3242
Average number of points per batch           ...       63
Average number of grid points per atom       ...     7122
Average number of shells per batch           ...   254.35 (80.49%)
Average number of basis functions per batch  ...   729.48 (79.29%)
Average number of large shells per batch     ...   214.79 (84.45%)
Average number of large basis fcns per batch ...   615.99 (84.44%)
Maximum spatial batch extension              ...   2.13,  1.77,  1.99 au
Average spatial batch extension              ...   0.04,  0.04,  0.04 au

Time for grid setup =    1.996 sec

--------------------
COSX GRID GENERATION
--------------------

General Integration Accuracy     IntAcc      ...  3.340
Radial Grid Type                 RadialGrid  ... Gauss-Chebyshev
Angular Grid (max. acc.)         AngularGrid ... Lebedev-50
Angular grid pruning method      GridPruning ... 3 (G Style)
Weight generation scheme         WeightScheme... Becke
Basis function cutoff            BFCut       ...    1.0000e-11
Integration weight cutoff        WCut        ...    1.0000e-14
Grids for H and He will be reduced by one unit

# of grid points (after initial pruning)     ...  12126 (   0.0 sec)
# of grid points (after weights+screening)   ...  10813 (   0.0 sec)
nearest neighbour list constructed           ...    0.0 sec
Grid point re-assignment to atoms done       ...    0.0 sec
Grid point division into batches done        ...    0.0 sec
Reduced shell lists constructed in    0.0 sec

Total number of grid points                  ...    10813
Total number of batches                      ...      183
Average number of points per batch           ...       59
Average number of grid points per atom       ...      373
Average number of shells per batch           ...   246.27 (77.93%)
Average number of basis functions per batch  ...   712.09 (77.40%)
Average number of large shells per batch     ...   210.18 (85.35%)
Average number of large basis fcns per batch ...   602.73 (84.64%)
Maximum spatial batch extension              ...   3.03,  3.63,  2.28 au
Average spatial batch extension              ...   0.12,  0.11,  0.09 au

Overlap Fitting                  UseSFitting ... on
Constructing numerical overlap ... done (      0.1 sec)
Inverting numerical overlap    ... done (      0.0 sec)
Obtaining analytic overlap     ... done (      0.0 sec)
Final contraction and storage  ... done (      0.1 sec)


General Integration Accuracy     IntAcc      ...  3.670
Radial Grid Type                 RadialGrid  ... Gauss-Chebyshev
Angular Grid (max. acc.)         AngularGrid ... Lebedev-50
Angular grid pruning method      GridPruning ... 3 (G Style)
Weight generation scheme         WeightScheme... Becke
Basis function cutoff            BFCut       ...    1.0000e-11
Integration weight cutoff        WCut        ...    1.0000e-14
Grids for H and He will be reduced by one unit

# of grid points (after initial pruning)     ...  15662 (   0.0 sec)
# of grid points (after weights+screening)   ...  13938 (   0.0 sec)
nearest neighbour list constructed           ...    0.0 sec
Grid point re-assignment to atoms done       ...    0.0 sec
Grid point division into batches done        ...    0.0 sec
Reduced shell lists constructed in    0.0 sec

Total number of grid points                  ...    13938
Total number of batches                      ...      232
Average number of points per batch           ...       60
Average number of grid points per atom       ...      481
Average number of shells per batch           ...   249.38 (78.92%)
Average number of basis functions per batch  ...   721.69 (78.44%)
Average number of large shells per batch     ...   212.23 (85.10%)
Average number of large basis fcns per batch ...   609.31 (84.43%)
Maximum spatial batch extension              ...   2.95,  3.58,  2.67 au
Average spatial batch extension              ...   0.10,  0.11,  0.09 au

Overlap Fitting                  UseSFitting ... on
Constructing numerical overlap ... done (      0.1 sec)
Inverting numerical overlap    ... done (      0.0 sec)
Obtaining analytic overlap     ... done (      0.0 sec)
Final contraction and storage  ... done (      0.1 sec)


General Integration Accuracy     IntAcc      ...  4.010
Radial Grid Type                 RadialGrid  ... Gauss-Chebyshev
Angular Grid (max. acc.)         AngularGrid ... Lebedev-110
Angular grid pruning method      GridPruning ... 3 (G Style)
Weight generation scheme         WeightScheme... Becke
Basis function cutoff            BFCut       ...    1.0000e-11
Integration weight cutoff        WCut        ...    1.0000e-14
Grids for H and He will be reduced by one unit

# of grid points (after initial pruning)     ...  28066 (   0.0 sec)
# of grid points (after weights+screening)   ...  24971 (   0.0 sec)
nearest neighbour list constructed           ...    0.0 sec
Grid point re-assignment to atoms done       ...    0.0 sec
Grid point division into batches done        ...    0.0 sec
Reduced shell lists constructed in    0.1 sec

Total number of grid points                  ...    24971
Total number of batches                      ...      403
Average number of points per batch           ...       61
Average number of grid points per atom       ...      861
Average number of shells per batch           ...   252.36 (79.86%)
Average number of basis functions per batch  ...   727.64 (79.09%)
Average number of large shells per batch     ...   214.23 (84.89%)
Average number of large basis fcns per batch ...   616.14 (84.68%)
Maximum spatial batch extension              ...   1.96,  2.12,  2.46 au
Average spatial batch extension              ...   0.08,  0.08,  0.08 au

Overlap Fitting                  UseSFitting ... on
Constructing numerical overlap ... done (      0.1 sec)
Inverting numerical overlap    ... done (      0.0 sec)
Obtaining analytic overlap     ... done (      0.0 sec)
Final contraction and storage  ... done (      0.1 sec)

Time for X-Grid setup             =    0.913 sec

--------------------
CPCM SOLVATION MODEL
--------------------
CPCM parameters:
  Epsilon                                         ...      36.6000
  Refrac                                          ...       1.3440
  Rsolv                                           ...       1.3000
  Surface type                                    ...    GEPOL SES
  Epsilon function type                           ...         CPCM
Radii:
 Radius for C  used is    3.7795 Bohr (=   2.0000 Ang.)
 Radius for H  used is    2.4566 Bohr (=   1.3000 Ang.)
 Radius for B  used is    3.8692 Bohr (=   2.0475 Ang.)
 Radius for O  used is    3.2503 Bohr (=   1.7200 Ang.)
Calculating surface                               ...        done! (  0.2s)
GEPOL surface points                              ...          954
GEPOL Volume                                      ...    1453.4958
GEPOL Surface-area                                ...     727.1689
Calculating surface distance matrix               ...        done! (  0.0s)
Performing Cholesky decomposition & store         ...        done! (  0.0s)
Overall time for CPCM initialization              ...                 0.2s
--------------
SCF ITERATIONS
--------------
ITER       Energy         Delta-E        Max-DP      RMS-DP      [F,P]     Damp
  0   -454.2633337002   0.000000000000 0.14723822  0.00079758  0.0098249 0.7000
  1   -454.2653848273  -0.002051127081 2.56581482  0.00772712  0.0071943 0.7000
                               ***Turning on DIIS***
  2   -454.2656522709  -0.000267443589 6.95809898  0.02048337  0.0050777 0.0000
  3   -454.2664477008  -0.000795429950 0.40780291  0.00158283  0.0052227 0.0000
  4   -454.2665740925  -0.000126391694 0.09782772  0.00048165  0.0035879 0.0000
  5   -454.2666561926  -0.000082100072 0.04294156  0.00021264  0.0021193 0.0000
  6   -454.2667113937  -0.000055201093 0.06206511  0.00022771  0.0013893 0.0000
  7   -454.2667563747  -0.000044981056 0.03518754  0.00027315  0.0009732 0.0000
  8   -454.2646864008   0.002069973960 0.64553209  0.00178187  0.0021949 0.0000
  9   -454.2647198527  -0.000033451917 0.05442016  0.00015468  0.0020771 0.0000
 10   -454.2647220515  -0.000002198869 0.05877584  0.00016972  0.0020739 0.0000
 11   -454.2647243580  -0.000002306463 0.05923980  0.00018105  0.0020650 0.0000
 12   -454.2647160228   0.000008335207 8.61721771  0.02488247  0.0020530 0.0000
 13   -454.2650143075  -0.000298284681 0.76562389  0.00338192  0.0008412 0.0000
 14   -454.2650213507  -0.000007043209 0.03059098  0.00014709  0.0012251 0.0000
 15   -454.2650237109  -0.000002360201 0.03587180  0.00018762  0.0005751 0.0000
 16   -454.2650274052  -0.000003694346 0.01275232  0.00008331  0.0003931 0.0000
 17   -454.2650304208  -0.000003015566 0.01079477  0.00005545  0.0001569 0.0000
 18   -454.2650310436  -0.000000622749 0.00363699  0.00002148  0.0000861 0.0000
 19   -454.2650311240  -0.000000080430 0.00080653  0.00000679  0.0000062 0.0000