
                                 *****************
                                 * O   R   C   A *
                                 *****************

           --- An Ab Initio, DFT and Semiempirical electronic structure package ---

                  #######################################################
                  #                        -***-                        #
                  #          Department of theory and spectroscopy      #
                  #               Directorship: Frank Neese             #
                  #        Max Planck Institute fuer Kohlenforschung    #
                  #                Kaiser Wilhelm Platz 1               #
                  #                 D-45470 Muelheim/Ruhr               #
                  #                      Germany                        #
                  #                                                     #
                  #                  All rights reserved                #
                  #                        -***-                        #
                  #######################################################


                         Program Version 4.2.1 -  RELEASE  -


 With contributions from (in alphabetic order):
   Daniel Aravena         : Magnetic Suceptibility
   Michael Atanasov       : Ab Initio Ligand Field Theory (pilot matlab implementation)
   Alexander A. Auer      : GIAO ZORA, VPT2
   Ute Becker             : Parallelization
   Giovanni Bistoni       : ED, misc. LED, open-shell LED, HFLD
   Martin Brehm           : Molecular dynamics
   Dmytro Bykov           : SCF Hessian
   Vijay G. Chilkuri      : MRCI spin determinant printing, contributions to CSF-ICE
   Dipayan Datta          : RHF DLPNO-CCSD density
   Achintya Kumar Dutta   : EOM-CC, STEOM-CC
   Dmitry Ganyushin       : Spin-Orbit,Spin-Spin,Magnetic field MRCI
   Miquel Garcia          : C-PCM Hessian, Gaussian charge scheme
   Yang Guo               : DLPNO-NEVPT2, CIM, IAO-localization
   Andreas Hansen         : Spin unrestricted coupled pair/coupled cluster methods
   Benjamin Helmich-Paris : CASSCF linear response (MC-RPA)
   Lee Huntington         : MR-EOM, pCC
   Robert Izsak           : Overlap fitted RIJCOSX, COSX-SCS-MP3, EOM
   Christian Kollmar      : KDIIS, OOCD, Brueckner-CCSD(T), CCSD density
   Simone Kossmann        : Meta GGA functionals, TD-DFT gradient, OOMP2, MP2 Hessian
   Martin Krupicka        : AUTO-CI
   Lucas Lang             : DCDCAS
   Dagmar Lenk            : GEPOL surface, SMD
   Dimitrios Liakos       : Extrapolation schemes; Compound Job, initial MDCI parallelization
   Dimitrios Manganas     : Further ROCIS development; embedding schemes
   Dimitrios Pantazis     : SARC Basis sets
   Taras Petrenko         : DFT Hessian,TD-DFT gradient, ASA, ECA, R-Raman, ABS, FL, XAS/XES, NRVS
   Peter Pinski           : DLPNO-MP2, DLPNO-MP2 Gradient
   Christoph Reimann      : Effective Core Potentials
   Marius Retegan         : Local ZFS, SOC
   Christoph Riplinger    : Optimizer, TS searches, QM/MM, DLPNO-CCSD(T), (RO)-DLPNO pert. Triples
   Tobias Risthaus        : Range-separated hybrids, TD-DFT gradient, RPA, STAB
   Michael Roemelt        : Original ROCIS implementation
   Masaaki Saitow         : Open-shell DLPNO-CCSD energy and density
   Barbara Sandhoefer     : DKH picture change effects
   Avijit Sen             : IP-ROCIS
   Kantharuban Sivalingam : CASSCF convergence, NEVPT2, FIC-MRCI
   Bernardo de Souza      : ESD, SOC TD-DFT
   Georgi Stoychev        : AutoAux, RI-MP2 NMR
   Willem Van den Heuvel  : Paramagnetic NMR
   Boris Wezisla          : Elementary symmetry handling
   Frank Wennmohs         : Technical directorship


 We gratefully acknowledge several colleagues who have allowed us to
 interface, adapt or use parts of their codes:
   Stefan Grimme, W. Hujo, H. Kruse,             : VdW corrections, initial TS optimization,
                  C. Bannwarth                     DFT functionals, gCP, sTDA/sTD-DF
   Ed Valeev, F. Pavosevic, A. Kumar             : LibInt (2-el integral package), F12 methods
   Garnet Chan, S. Sharma, J. Yang, R. Olivares  : DMRG
   Ulf Ekstrom                                   : XCFun DFT Library
   Mihaly Kallay                                 : mrcc  (arbitrary order and MRCC methods)
   Andreas Klamt, Michael Diedenhofen            : otool_cosmo (COSMO solvation model)
   Jiri Pittner, Ondrej Demel                    : Mk-CCSD
   Frank Weinhold                                : gennbo (NPA and NBO analysis)
   Christopher J. Cramer and Donald G. Truhlar   : smd solvation model
   Lars Goerigk                                  : TD-DFT with DH, B97 family of functionals
   V. Asgeirsson, H. Jonsson                     : NEB implementation
   FAccTs GmbH                                   : IRC, NEB, NEB-TS, Multilevel, MM, QM/MM, CI optimization
   S Lehtola, MJT Oliveira, MAL Marques          : LibXC Library


 Your calculation uses the libint2 library for the computation of 2-el integrals
 For citations please refer to: http://libint.valeyev.net

 Your ORCA version has been built with support for libXC version: 4.2.3
 For citations please refer to: https://tddft.org/programs/libxc/

 This ORCA versions uses:
   CBLAS   interface :  Fast vector & matrix operations
   LAPACKE interface :  Fast linear algebra routines
   SCALAPACK package :  Parallel linear algebra routines


Your calculation utilizes the atom-pairwise dispersion correction
with the Becke-Johnson damping scheme (D3BJ)
Cite in your paper:
S.Grimme, S.Ehrlich, L.Goerigk, J Comput Chem, (2011), 32, 1456–1465 
S.Grimme, J.Antony, S.Ehrlich and H.Krieg, J.Chem.Phys., 132, (2010), 154104 
   

----- Orbital basis set information -----
Your calculation utilizes the basis: pc-2
   H, C-F              : F. Jensen, J. Chem. Phys. 115, 9113 (2001).
                         F. Jensen, J. Chem. Phys. 116, 7372 (2002).
                         F. Jensen, J. Chem. Phys. 117, 9234 (2002).
   Si-Cl               : F. Jensen, T. Helgaker, J. Chem. Phys. 121, 3463 (2004).
   He-B, Ne-Mg, Al, Ar : F. Jensen, J. Phys. Chem. A 111, 11198 (2007).
   K, Ca, Ga-Kr        : F. Jensen, J. Chem. Phys. 136, 094110 (2012).
   Sc-Zn               : F. Jensen, J. Chem. Phys. 138, 014107 (2013).

----- AuxJ basis set information -----
Your calculation utilizes the auxiliary basis: def2/J
   F. Weigend, Phys. Chem. Chem. Phys. 8, 1057 (2006).

================================================================================
                                        WARNINGS
                       Please study these warnings very carefully!
================================================================================

WARNING: Gradients needed for Numerical Frequencies
  ===> : Setting RunTyp to EnGrad

WARNING: For RIJCOSX frequencies GRIDX4 or larger grids are recommended

INFO   : the flag for use of LIBINT has been found!

================================================================================
                                       INPUT FILE
================================================================================
NAME = boron_2.inp
|  1> ! uks wb97x-D3BJ pc-2 numfreq grid5 finalgrid6 rijcosx tightscf
|  2> 
|  3> %maxcore 2000
|  4> 
|  5> %PAL 
|  6>   Nprocs 96
|  7> END
|  8> 
|  9> * xyz 0 2
| 10>   C   -1.78832884912439      2.13577011764125     -1.32804254202865
| 11>   C   -3.03148792869992      1.98660481949655     -0.45955295260085
| 12>   C   -0.53595737618157      2.03320511871958     -0.46632047856504
| 13>   H   -1.80799089384276      3.10235586221731     -1.83541040463795
| 14>   H   -1.77418233935773      1.37575592085383     -2.11299319666902
| 15>   C   -3.18240100960512      0.60899654774115      0.19290523873046
| 16>   H   -3.93739900064290      2.18647442629504     -1.04269177596711
| 17>   H   -3.00021038123697      2.74753601274346      0.32751656531292
| 18>   C   -0.33096587288753      0.65874252850555      0.17927357636790
| 19>   H   -0.59381299129876      2.78956411153207      0.32352782608357
| 20>   H   0.35813949567343      2.27014319296594     -1.05356974051927
| 21>   B   -1.74494094921610      0.14560033098904      0.85236897914616
| 22>   C   0.75522058889582      0.75829060427854      1.25343648510060
| 23>   H   0.45520441292803      1.42693839840778      2.06124286099496
| 24>   H   1.67207782759324      1.16104752425311      0.80915123908110
| 25>   H   0.97460664828250     -0.21582047872474      1.69377153265420
| 26>   C   0.09457444130146     -0.36715884233447     -0.87929033124357
| 27>   H   -0.67288467294220     -0.54680357911475     -1.62973258695437
| 28>   H   0.35374618446137     -1.32526641555613     -0.42558844845704
| 29>   H   0.97829008267851      0.01445619523245     -1.40100758437112
| 30>   C   -4.26073830865529      0.67816945215953      1.27734276126232
| 31>   H   -3.97217792819478      1.35504177114715      2.08254300289099
| 32>   H   -4.44883150349149     -0.30149006967966      1.71972280991877
| 33>   H   -5.19196723387662      1.05564380221334      0.84055174418750
| 34>   C   -3.58297346238787     -0.43556261576824     -0.85688257027681
| 35>   H   -2.81900585263367     -0.58531736453156     -1.61772510074728
| 36>   H   -4.48877479122560     -0.09262129446423     -1.36760516809403
| 37>   H   -3.79666754536491     -1.40159361044555     -0.39599032332701
| 38>   O   -1.72542079094809     -0.60961246677337      1.88362858272764
| 39> *
| 40> 
| 41>                          ****END OF INPUT****
================================================================================

                     *******************************
                     * Energy+Gradient Calculation *
                     *******************************

---------------------------------
CARTESIAN COORDINATES (ANGSTROEM)
---------------------------------
  C     -1.788329    2.135770   -1.328043
  C     -3.031488    1.986605   -0.459553
  C     -0.535957    2.033205   -0.466320
  H     -1.807991    3.102356   -1.835410
  H     -1.774182    1.375756   -2.112993
  C     -3.182401    0.608997    0.192905
  H     -3.937399    2.186474   -1.042692
  H     -3.000210    2.747536    0.327517
  C     -0.330966    0.658743    0.179274
  H     -0.593813    2.789564    0.323528
  H      0.358139    2.270143   -1.053570
  B     -1.744941    0.145600    0.852369
  C      0.755221    0.758291    1.253436
  H      0.455204    1.426938    2.061243
  H      1.672078    1.161048    0.809151
  H      0.974607   -0.215820    1.693772
  C      0.094574   -0.367159   -0.879290
  H     -0.672885   -0.546804   -1.629733
  H      0.353746   -1.325266   -0.425588
  H      0.978290    0.014456   -1.401008
  C     -4.260738    0.678169    1.277343
  H     -3.972178    1.355042    2.082543
  H     -4.448832   -0.301490    1.719723
  H     -5.191967    1.055644    0.840552
  C     -3.582973   -0.435563   -0.856883
  H     -2.819006   -0.585317   -1.617725
  H     -4.488775   -0.092621   -1.367605
  H     -3.796668   -1.401594   -0.395990
  O     -1.725421   -0.609612    1.883629

----------------------------
CARTESIAN COORDINATES (A.U.)
----------------------------
  NO LB      ZA    FRAG     MASS         X           Y           Z
   0 C     6.0000    0    12.011   -3.379452    4.036021   -2.509637
   1 C     6.0000    0    12.011   -5.728682    3.754139   -0.868429
   2 C     6.0000    0    12.011   -1.012813    3.842201   -0.881218
   3 H     1.0000    0     1.008   -3.416608    5.862603   -3.468423
   4 H     1.0000    0     1.008   -3.352719    2.599802   -3.992978
   5 C     6.0000    0    12.011   -6.013866    1.150837    0.364538
   6 H     1.0000    0     1.008   -7.440606    4.131838   -1.970402
   7 H     1.0000    0     1.008   -5.669576    5.192091    0.618917
   8 C     6.0000    0    12.011   -0.625435    1.244843    0.338778
   9 H     1.0000    0     1.008   -1.122144    5.271512    0.611379
  10 H     1.0000    0     1.008    0.676786    4.289949   -1.990958
  11 B     5.0000    0    10.810   -3.297461    0.275145    1.610744
  12 C     6.0000    0    12.011    1.427160    1.432962    2.368652
  13 H     1.0000    0     1.008    0.860212    2.696523    3.895185
  14 H     1.0000    0     1.008    3.159769    2.194062    1.529074
  15 H     1.0000    0     1.008    1.841740   -0.407842    3.200764
  16 C     6.0000    0    12.011    0.178720   -0.693830   -1.661618
  17 H     1.0000    0     1.008   -1.271568   -1.033309   -3.079748
  18 H     1.0000    0     1.008    0.668483   -2.504391   -0.804246
  19 H     1.0000    0     1.008    1.848700    0.027318   -2.647521
  20 C     6.0000    0    12.011   -8.051629    1.281555    2.413828
  21 H     1.0000    0     1.008   -7.506328    2.560658    3.935436
  22 H     1.0000    0     1.008   -8.407073   -0.569734    3.249805
  23 H     1.0000    0     1.008   -9.811396    1.994878    1.588413
  24 C     6.0000    0    12.011   -6.770839   -0.823094   -1.619273
  25 H     1.0000    0     1.008   -5.327149   -1.106090   -3.057057
  26 H     1.0000    0     1.008   -8.482555   -0.175029   -2.584399
  27 H     1.0000    0     1.008   -7.174662   -2.648628   -0.748313
  28 O     8.0000    0    15.999   -3.260573   -1.152001    3.559542

--------------------------------
INTERNAL COORDINATES (ANGSTROEM)
--------------------------------
 C      0   0   0     0.000000000000     0.00000000     0.00000000
 C      1   0   0     1.523800823679     0.00000000     0.00000000
 C      1   2   0     1.523653110096   109.97683939     0.00000000
 H      1   2   3     1.091831830287   109.68334950   239.26279882
 H      1   2   3     1.092688992018   110.60402675   122.22047967
 C      2   1   3     1.531757487278   114.27954685   294.91767794
 H      2   1   3     1.095752534703   110.69002168   172.70647704
 H      2   1   3     1.095204543389   108.55912320    56.48969325
 C      3   1   2     1.532305652305   114.11854756    65.30291112
 H      3   1   2     1.095119419317   108.54157885   303.76267085
 H      3   1   2     1.095632494477   110.67490901   187.49258264
 B      9   3   1     1.647937454090   109.67046106   313.43039752
 C      9   3   1     1.530861458019   109.40364817   192.66807981
 H     13   9   3     1.090711107201   111.36904116    63.22436378
 H     13   9   3     1.095549958957   109.46005315   304.15869654
 H     13   9   3     1.091291711316   111.57491703   183.58032590
 C      9   3   1     1.534312786947   110.25412824    72.41609904
 H     17   9   3     1.088314891309   112.98714785   295.51255251
 H     17   9   3     1.091322827014   111.47273610   173.65475419
 H     17   9   3     1.094884589316   108.63635052    54.51418113
 C      6   2   1     1.530882412697   109.29884966   166.94119544
 H     21   6   2     1.090766087895   111.38383241   296.36121723
 H     21   6   2     1.091243298318   111.59334120   176.00031315
 H     21   6   2     1.095655323865   109.38105977    55.39763309
 C      6   2   1     1.534150116495   110.27978366   287.20105243
 H     25   6   2     1.088556084776   112.87341952    64.07389060
 H     25   6   2     1.094953135574   108.77902283   305.08324932
 H     25   6   2     1.091468142950   111.39485563   185.91476334
 O     12   9   3     1.278367621798   120.02298132   210.37167960

---------------------------
INTERNAL COORDINATES (A.U.)
---------------------------
 C      0   0   0     0.000000000000     0.00000000     0.00000000
 C      1   0   0     2.879566239398     0.00000000     0.00000000
 C      1   2   0     2.879287101179   109.97683939     0.00000000
 H      1   2   3     2.063263143541   109.68334950   239.26279882
 H      1   2   3     2.064882944465   110.60402675   122.22047967
 C      2   1   3     2.894602154539   114.27954685   294.91767794
 H      2   1   3     2.070672201138   110.69002168   172.70647704
 H      2   1   3     2.069636647632   108.55912320    56.48969325
 C      3   1   2     2.895638036316   114.11854756    65.30291112
 H      3   1   2     2.069475786448   108.54157885   303.76267085
 H      3   1   2     2.070445357987   110.67490901   187.49258264
 B      9   3   1     3.114150474061   109.67046106   313.43039752
 C      9   3   1     2.892908904632   109.40364817   192.66807981
 H     13   9   3     2.061145283836   111.36904116    63.22436378
 H     13   9   3     2.070289388457   109.46005315   304.15869654
 H     13   9   3     2.062242466606   111.57491703   183.58032590
 C      9   3   1     2.899430971103   110.25412824    72.41609904
 H     17   9   3     2.056617092042   112.98714785   295.51255251
 H     17   9   3     2.062301266753   111.47273610   173.65475419
 H     17   9   3     2.069032022059   108.63635052    54.51418113
 C      6   2   1     2.892948503233   109.29884966   166.94119544
 H     21   6   2     2.061249182290   111.38383241   296.36121723
 H     21   6   2     2.062150979297   111.59334120   176.00031315
 H     21   6   2     2.070488499278   109.38105977    55.39763309
 C      6   2   1     2.899123568498   110.27978366   287.20105243
 H     25   6   2     2.057072881641   112.87341952    64.07389060
 H     25   6   2     2.069161555713   108.77902283   305.08324932
 H     25   6   2     2.062575874075   111.39485563   185.91476334
 O     12   9   3     2.415764703671   120.02298132   210.37167960

---------------------
BASIS SET INFORMATION
---------------------
There are 4 groups of distinct atoms

 Group   1 Type C   : 16s6p2d1f contracted to 4s3p2d1f pattern {7711/411/11/1}
 Group   2 Type H   : 6s2p1d contracted to 3s2p1d pattern {411/11/1}
 Group   3 Type B   : 16s6p2d1f contracted to 4s3p2d1f pattern {7711/411/11/1}
 Group   4 Type O   : 16s6p2d1f contracted to 4s3p2d1f pattern {7711/411/11/1}

Atom   0C    basis set group =>   1
Atom   1C    basis set group =>   1
Atom   2C    basis set group =>   1
Atom   3H    basis set group =>   2
Atom   4H    basis set group =>   2
Atom   5C    basis set group =>   1
Atom   6H    basis set group =>   2
Atom   7H    basis set group =>   2
Atom   8C    basis set group =>   1
Atom   9H    basis set group =>   2
Atom  10H    basis set group =>   2
Atom  11B    basis set group =>   3
Atom  12C    basis set group =>   1
Atom  13H    basis set group =>   2
Atom  14H    basis set group =>   2
Atom  15H    basis set group =>   2
Atom  16C    basis set group =>   1
Atom  17H    basis set group =>   2
Atom  18H    basis set group =>   2
Atom  19H    basis set group =>   2
Atom  20C    basis set group =>   1
Atom  21H    basis set group =>   2
Atom  22H    basis set group =>   2
Atom  23H    basis set group =>   2
Atom  24C    basis set group =>   1
Atom  25H    basis set group =>   2
Atom  26H    basis set group =>   2
Atom  27H    basis set group =>   2
Atom  28O    basis set group =>   4
---------------------------------
AUXILIARY/J BASIS SET INFORMATION
---------------------------------
There are 4 groups of distinct atoms

 Group   1 Type C   : 12s5p4d2f1g contracted to 6s4p3d1f1g pattern {711111/2111/211/2/1}
 Group   2 Type H   : 5s2p1d contracted to 3s1p1d pattern {311/2/1}
 Group   3 Type B   : 12s5p4d2f1g contracted to 6s4p3d1f1g pattern {711111/2111/211/2/1}
 Group   4 Type O   : 12s5p4d2f1g contracted to 6s4p3d1f1g pattern {711111/2111/211/2/1}

Atom   0C    basis set group =>   1
Atom   1C    basis set group =>   1
Atom   2C    basis set group =>   1
Atom   3H    basis set group =>   2
Atom   4H    basis set group =>   2
Atom   5C    basis set group =>   1
Atom   6H    basis set group =>   2
Atom   7H    basis set group =>   2
Atom   8C    basis set group =>   1
Atom   9H    basis set group =>   2
Atom  10H    basis set group =>   2
Atom  11B    basis set group =>   3
Atom  12C    basis set group =>   1
Atom  13H    basis set group =>   2
Atom  14H    basis set group =>   2
Atom  15H    basis set group =>   2
Atom  16C    basis set group =>   1
Atom  17H    basis set group =>   2
Atom  18H    basis set group =>   2
Atom  19H    basis set group =>   2
Atom  20C    basis set group =>   1
Atom  21H    basis set group =>   2
Atom  22H    basis set group =>   2
Atom  23H    basis set group =>   2
Atom  24C    basis set group =>   1
Atom  25H    basis set group =>   2
Atom  26H    basis set group =>   2
Atom  27H    basis set group =>   2
Atom  28O    basis set group =>   4


           ************************************************************
           *        Program running with 96 parallel MPI-processes    *
           *              working on a shared directory               *
           ************************************************************
------------------------------------------------------------------------------
                           ORCA GTO INTEGRAL CALCULATION
                           -- RI-GTO INTEGRALS CHOSEN --
------------------------------------------------------------------------------

                         BASIS SET STATISTICS AND STARTUP INFO

Gaussian basis set:
 # of primitive gaussian shells          ...  437
 # of primitive gaussian functions       ...  867
 # of contracted shells                  ...  218
 # of contracted basis functions         ...  582
 Highest angular momentum                ...    3
 Maximum contraction depth               ...    7
Auxiliary gaussian basis set:
 # of primitive gaussian shells          ...  408
 # of primitive gaussian functions       ... 1058
 # of contracted shells                  ...  255
 # of contracted aux-basis functions     ...  737
 Highest angular momentum                ...    4
 Maximum contraction depth               ...    7
Ratio of auxiliary to basis functions    ...  1.27
Integral package used                  ... LIBINT
 One Electron integrals                  ... done
 Ordering auxiliary basis shells         ... done
 Integral threshhold             Thresh  ...  2.500e-11
 Primitive cut-off               TCut    ...  2.500e-12
 Pre-screening matrix                    ... done
 Shell pair data                         ... 
 Ordering of the shell pairs             ... done (   0.005 sec) 21342 of 23871 pairs
 Determination of significant pairs      ... done (   0.000 sec)
 Creation of shell pair data             ... done (   0.005 sec)
 Storage of shell pair data              ... done (   0.031 sec)
 Shell pair data done in (   0.040 sec)
 Computing two index integrals           ... done
 Cholesky decomposition of the V-matrix  ... done


Timings:
 Total evaluation time                   ...   0.790 sec (  0.013 min)
 One electron matrix time                ...   0.228 sec (  0.004 min) = 28.9%
 Schwartz matrix evaluation time         ...   0.436 sec (  0.007 min) = 55.2%
 Two index repulsion integral time       ...   0.038 sec (  0.001 min) =  4.8%
 Cholesky decomposition of V             ...   0.019 sec (  0.000 min) =  2.4%
 Three index repulsion integral time     ...   0.000 sec (  0.000 min) =  0.0%



           ************************************************************
           *        Program running with 96 parallel MPI-processes    *
           *              working on a shared directory               *
           ************************************************************
-------------------------------------------------------------------------------
                                 ORCA SCF
-------------------------------------------------------------------------------

------------
SCF SETTINGS
------------
Hamiltonian:
 Density Functional     Method          .... DFT(GTOs)
 Exchange Functional    Exchange        .... WB97X-V
 Correlation Functional Correlation     .... WB97X-V
 Gradients option       PostSCFGGA      .... off
 Hybrid DFT is turned on
   Fraction HF Exchange ScalHFX         ....  0.167000
   Scaling of DF-GGA-X  ScalDFX         ....  0.000000
   Scaling of DF-GGA-C  ScalDFC         ....  1.000000
   Scaling of DF-LDA-C  ScalLDAC        ....  1.000000
   Perturbative correction              ....  0.000000
   Density functional embedding theory  .... OFF
 Long-range corrected/Screened/Range-Separated Hybrid DFT is turned on
   Amount of maximum screened exact exchange              ....  0.833000
   Range separation parameter mu (erf(mu*r12)/r12)        ....  0.300000
 RI-approximation to the Coulomb term is turned on
   Number of auxiliary basis functions  .... 737
   RIJ-COSX (HFX calculated with COS-X)).... on


General Settings:
 Integral files         IntName         .... boron_2
 Hartree-Fock type      HFTyp           .... UHF
 Total Charge           Charge          ....    0
 Multiplicity           Mult            ....    2
 Number of Electrons    NEL             ....   85
 Basis Dimension        Dim             ....  582
 Nuclear Repulsion      ENuc            ....    662.2741613450 Eh

Convergence Acceleration:
 DIIS                   CNVDIIS         .... on
   Start iteration      DIISMaxIt       ....    12
   Startup error        DIISStart       ....  0.200000
   # of expansion vecs  DIISMaxEq       ....     5
   Bias factor          DIISBfac        ....   1.050
   Max. coefficient     DIISMaxC        ....  10.000
 Newton-Raphson         CNVNR           .... off
 SOSCF                  CNVSOSCF        .... off
 Level Shifting         CNVShift        .... on
   Level shift para.    LevelShift      ....    0.2500
   Turn off err/grad.   ShiftErr        ....    0.0010
 Zerner damping         CNVZerner       .... off
 Static damping         CNVDamp         .... on
   Fraction old density DampFac         ....    0.7000
   Max. Damping (<1)    DampMax         ....    0.9800
   Min. Damping (>=0)   DampMin         ....    0.0000
   Turn off err/grad.   DampErr         ....    0.1000
 Fernandez-Rico         CNVRico         .... off

SCF Procedure:
 Maximum # iterations   MaxIter         ....   125
 SCF integral mode      SCFMode         .... Direct
   Integral package                     .... LIBINT
 Reset frequency        DirectResetFreq ....    20
 Integral Threshold     Thresh          ....  2.500e-11 Eh
 Primitive CutOff       TCut            ....  2.500e-12 Eh

Convergence Tolerance:
 Convergence Check Mode ConvCheckMode   .... Total+1el-Energy
 Convergence forced     ConvForced      .... 0
 Energy Change          TolE            ....  1.000e-08 Eh
 1-El. energy change                    ....  1.000e-05 Eh
 DIIS Error             TolErr          ....  5.000e-07


Diagonalization of the overlap matrix:
Smallest eigenvalue                        ... 1.992e-04
Time for diagonalization                   ...    0.061 sec
Threshold for overlap eigenvalues          ... 1.000e-08
Number of eigenvalues below threshold      ... 0
Time for construction of square roots      ...    0.095 sec
Total time needed                          ...    0.158 sec

-------------------
DFT GRID GENERATION
-------------------

General Integration Accuracy     IntAcc      ...  5.010
Radial Grid Type                 RadialGrid  ... Gauss-Chebyshev
Angular Grid (max. acc.)         AngularGrid ... Lebedev-434
Angular grid pruning method      GridPruning ... 3 (G Style)
Weight generation scheme         WeightScheme... Becke
Basis function cutoff            BFCut       ...    1.0000e-11
Integration weight cutoff        WCut        ...    1.0000e-14
Grids for H and He will be reduced by one unit

# of grid points (after initial pruning)     ... 238170 (   0.0 sec)
# of grid points (after weights+screening)   ... 206545 (   0.1 sec)
nearest neighbour list constructed           ...    0.0 sec
Grid point re-assignment to atoms done       ...    0.1 sec
Grid point division into batches done        ...    1.4 sec
Reduced shell lists constructed in    1.5 sec

Total number of grid points                  ...   206545
Total number of batches                      ...     3242
Average number of points per batch           ...       63
Average number of grid points per atom       ...     7122
Average number of shells per batch           ...   152.66 (70.03%)
Average number of basis functions per batch  ...   383.46 (65.89%)
Average number of large shells per batch     ...   117.83 (77.19%)
Average number of large basis fcns per batch ...   282.17 (73.59%)
Maximum spatial batch extension              ...   1.50,  1.34,  1.21 au
Average spatial batch extension              ...   0.01,  0.01,  0.01 au

Time for grid setup =    1.767 sec

------------------------------
INITIAL GUESS: MODEL POTENTIAL
------------------------------
Loading Hartree-Fock densities                     ... done
Calculating cut-offs                               ... done
Setting up the integral package                    ... done
Initializing the effective Hamiltonian             ... done
Starting the Coulomb interaction                   ... done (   0.0 sec)
Reading the grid                                   ... done
Mapping shells                                     ... done
Starting the XC term evaluation                    ... done (   0.2 sec)
  promolecular density results
     # of electrons  =     84.991311541
     EX              =    -41.976246032
     EC              =     -3.405267616
     EX+EC           =    -45.381513648
Transforming the Hamiltonian                       ... done (   0.0 sec)
Diagonalizing the Hamiltonian                      ... done (   0.1 sec)
Back transforming the eigenvectors                 ... done (   0.0 sec)
Now organizing SCF variables                       ... done
                      ------------------
                      INITIAL GUESS DONE (   2.3 sec)
                      ------------------
--------------------
COSX GRID GENERATION
--------------------

General Integration Accuracy     IntAcc      ...  3.340
Radial Grid Type                 RadialGrid  ... Gauss-Chebyshev
Angular Grid (max. acc.)         AngularGrid ... Lebedev-50
Angular grid pruning method      GridPruning ... 3 (G Style)
Weight generation scheme         WeightScheme... Becke
Basis function cutoff            BFCut       ...    1.0000e-11
Integration weight cutoff        WCut        ...    1.0000e-14
Grids for H and He will be reduced by one unit

# of grid points (after initial pruning)     ...  12126 (   0.0 sec)
# of grid points (after weights+screening)   ...  10813 (   0.0 sec)
nearest neighbour list constructed           ...    0.0 sec
Grid point re-assignment to atoms done       ...    0.0 sec
Grid point division into batches done        ...    0.0 sec
Reduced shell lists constructed in    0.0 sec

Total number of grid points                  ...    10813
Total number of batches                      ...      183
Average number of points per batch           ...       59
Average number of grid points per atom       ...      373
Average number of shells per batch           ...   121.33 (55.66%)
Average number of basis functions per batch  ...   314.00 (53.95%)
Average number of large shells per batch     ...    98.67 (81.32%)
Average number of large basis fcns per batch ...   246.67 (78.56%)
Maximum spatial batch extension              ...   2.22,  3.63,  1.93 au
Average spatial batch extension              ...   0.02,  0.03,  0.02 au

Overlap Fitting                  UseSFitting ... on
Constructing numerical overlap ... done (      0.0 sec)
Inverting numerical overlap    ... done (      0.0 sec)
Obtaining analytic overlap     ... done (      0.0 sec)
Final contraction and storage  ... done (      0.0 sec)


General Integration Accuracy     IntAcc      ...  3.670
Radial Grid Type                 RadialGrid  ... Gauss-Chebyshev
Angular Grid (max. acc.)         AngularGrid ... Lebedev-50
Angular grid pruning method      GridPruning ... 3 (G Style)
Weight generation scheme         WeightScheme... Becke
Basis function cutoff            BFCut       ...    1.0000e-11
Integration weight cutoff        WCut        ...    1.0000e-14
Grids for H and He will be reduced by one unit

# of grid points (after initial pruning)     ...  15662 (   0.0 sec)
# of grid points (after weights+screening)   ...  13938 (   0.0 sec)
nearest neighbour list constructed           ...    0.0 sec
Grid point re-assignment to atoms done       ...    0.0 sec
Grid point division into batches done        ...    0.0 sec
Reduced shell lists constructed in    0.0 sec

Total number of grid points                  ...    13938
Total number of batches                      ...      232
Average number of points per batch           ...       60
Average number of grid points per atom       ...      481
Average number of shells per batch           ...   132.50 (60.78%)
Average number of basis functions per batch  ...   343.50 (59.02%)
Average number of large shells per batch     ...   103.00 (77.74%)
Average number of large basis fcns per batch ...   253.50 (73.80%)
Maximum spatial batch extension              ...   2.48,  3.58,  2.67 au
Average spatial batch extension              ...   0.03,  0.03,  0.03 au

Overlap Fitting                  UseSFitting ... on
Constructing numerical overlap ... done (      0.0 sec)
Inverting numerical overlap    ... done (      0.0 sec)
Obtaining analytic overlap     ... done (      0.0 sec)
Final contraction and storage  ... done (      0.0 sec)


General Integration Accuracy     IntAcc      ...  4.010
Radial Grid Type                 RadialGrid  ... Gauss-Chebyshev
Angular Grid (max. acc.)         AngularGrid ... Lebedev-110
Angular grid pruning method      GridPruning ... 3 (G Style)
Weight generation scheme         WeightScheme... Becke
Basis function cutoff            BFCut       ...    1.0000e-11
Integration weight cutoff        WCut        ...    1.0000e-14
Grids for H and He will be reduced by one unit

# of grid points (after initial pruning)     ...  28066 (   0.0 sec)
# of grid points (after weights+screening)   ...  24971 (   0.0 sec)
nearest neighbour list constructed           ...    0.0 sec
Grid point re-assignment to atoms done       ...    0.0 sec
Grid point division into batches done        ...    0.0 sec
Reduced shell lists constructed in    0.0 sec

Total number of grid points                  ...    24971
Total number of batches                      ...      403
Average number of points per batch           ...       61
Average number of grid points per atom       ...      861
Average number of shells per batch           ...   137.83 (63.23%)
Average number of basis functions per batch  ...   349.83 (60.11%)
Average number of large shells per batch     ...   108.33 (78.60%)
Average number of large basis fcns per batch ...   263.67 (75.37%)
Maximum spatial batch extension              ...   1.96,  1.91,  1.86 au
Average spatial batch extension              ...   0.02,  0.02,  0.02 au

Overlap Fitting                  UseSFitting ... on
Constructing numerical overlap ... done (      0.0 sec)
Inverting numerical overlap    ... done (      0.0 sec)
Obtaining analytic overlap     ... done (      0.0 sec)
Final contraction and storage  ... done (      0.0 sec)

Time for X-Grid setup             =    0.415 sec
--------------
SCF ITERATIONS
--------------
ITER       Energy         Delta-E        Max-DP      RMS-DP      [F,P]     Damp
               ***  Starting incremental Fock matrix formation  ***
  0   -454.1728043344   0.000000000000 0.03696600  0.00024104  0.0790411 0.7000
  1   -454.1980387071  -0.025234372695 0.02658716  0.00018118  0.0551794 0.7000
                               ***Turning on DIIS***
  2   -454.2140578055  -0.016019098337 0.06240294  0.00043444  0.0381071 0.0000
  3   -454.2492050185  -0.035147213049 0.00922029  0.00007211  0.0137091 0.0000
  4   -454.2524281561  -0.003223137609 0.00742598  0.00004322  0.0063611 0.0000
  5   -454.2534834130  -0.001055256939 0.00616584  0.00002854  0.0063640 0.0000
  6   -454.2541195252  -0.000636112159 0.00390433  0.00002095  0.0057260 0.0000
  7   -454.2545301487  -0.000410623501 0.00488049  0.00002286  0.0031401 0.0000
  8   -454.2548828208  -0.000352672060 0.00448981  0.00002036  0.0026071 0.0000
  9   -454.2551024927  -0.000219671966 0.00278369  0.00001210  0.0021157 0.0000
 10   -454.2551893536  -0.000086860832 0.00216433  0.00001025  0.0011595 0.0000
 11   -454.2552300100  -0.000040656468 0.00170732  0.00000785  0.0008006 0.0000
               *** Restarting incremental Fock matrix formation ***
                                   *** Resetting DIIS ***
 12   -454.2552540648  -0.000024054732 0.00027580  0.00000191  0.0005778 0.0000
 13   -454.2552540726  -0.000000007812 0.00015381  0.00000086  0.0006592 0.0000
 14   -454.2552549329  -0.000000860295 0.00005780  0.00000042  0.0001428 0.0000
 15   -454.2552550641  -0.000000131236 0.00005799  0.00000035  0.0000714 0.0000
 16   -454.2552551411  -0.000000076948 0.00005826  0.00000031  0.0000367 0.0000
 17   -454.2552551713  -0.000000030252 0.00002639  0.00000013  0.0000137 0.0000
 18   -454.2552551781  -0.000000006812 0.00001116  0.00000005  0.0000043 0.0000
                 **** Energy Check signals convergence ****

               *****************************************************
               *                     SUCCESS                       *
               *           SCF CONVERGED AFTER  19 CYCLES          *
               *****************************************************

Setting up the final grid:

General Integration Accuracy     IntAcc      ...  5.340
Radial Grid Type                 RadialGrid  ... Gauss-Chebyshev
Angular Grid (max. acc.)         AngularGrid ... Lebedev-590
Angular grid pruning method      GridPruning ... 3 (G Style)
Weight generation scheme         WeightScheme... Becke
Basis function cutoff            BFCut       ...    1.0000e-11
Integration weight cutoff        WCut        ...    1.0000e-14
Grids for H and He will be reduced by one unit

# of grid points (after initial pruning)     ... 380204 (   0.0 sec)
# of grid points (after weights+screening)   ... 327476 (   0.2 sec)
nearest neighbour list constructed           ...    0.0 sec
Grid point re-assignment to atoms done       ...    0.1 sec
Grid point division into batches done        ...    3.6 sec
Reduced shell lists constructed in    3.8 sec

Total number of grid points                  ...   327476
Total number of batches                      ...     5132
Average number of points per batch           ...       63
Average number of grid points per atom       ...    11292
Average number of shells per batch           ...   153.51 (70.42%)
Average number of basis functions per batch  ...   384.85 (66.13%)
Average number of large shells per batch     ...   117.93 (76.82%)
Average number of large basis fcns per batch ...   281.02 (73.02%)
Maximum spatial batch extension              ...   1.29,  1.38,  1.40 au
Average spatial batch extension              ...   0.01,  0.01,  0.01 au

Final grid set up in    4.1 sec
Final integration                            ... done (   0.6 sec)
Change in XC energy                          ...     0.000069293
Integrated number of electrons               ...    84.999940289
Previous integrated no of electrons          ...    85.000036951
Old exchange energy                            =    -21.931289654 Eh
New exchange energy                            =    -21.931466658 Eh
Exchange energy change after final integration =     -0.000177004 Eh
Total energy after final integration           =   -454.255362881 Eh
Final COS-X integration done in                =     1.856 sec

----------------
TOTAL SCF ENERGY
----------------

Total Energy       :         -454.25536288 Eh          -12360.91684 eV

Components:
Nuclear Repulsion  :          662.27416134 Eh           18021.39612 eV
Electronic Energy  :        -1116.52952423 Eh          -30382.31296 eV
One Electron Energy:        -1926.75196721 Eh          -52429.58650 eV
Two Electron Energy:          810.22244298 Eh           22047.27354 eV

Virial components:
Potential Energy   :         -906.15616507 Eh          -24657.76283 eV
Kinetic Energy     :          451.90080219 Eh           12296.84599 eV
Virial Ratio       :            2.00521035


DFT components:
N(Alpha)           :       42.999970035062 electrons
N(Beta)            :       41.999970253973 electrons
N(Total)           :       84.999940289035 electrons
E(X)               :      -43.209140290211 Eh       
E(C)               :       -3.424794467588 Eh       
E(XC)              :      -46.633934757799 Eh       
DFET-embed. en.    :        0.000000000000 Eh       

---------------
SCF CONVERGENCE
---------------

  Last Energy change         ...    7.9147e-09  Tolerance :   1.0000e-08
  Last MAX-Density change    ...    0.0000e+00  Tolerance :   1.0000e-07
  Last RMS-Density change    ...    0.0000e+00  Tolerance :   5.0000e-09
  Last DIIS Error            ...    1.3979e-06  Tolerance :   5.0000e-07

             **** THE GBW FILE WAS UPDATED (boron_2.gbw) ****
             **** DENSITY FILE WAS UPDATED (boron_2.scfp) ****
             **** ENERGY FILE WAS UPDATED (boron_2.en.tmp) ****
----------------------
UHF SPIN CONTAMINATION
----------------------

Warning: in a DFT calculation there is little theoretical justification to 
         calculate <S**2> as in Hartree-Fock theory. We will do it anyways
         but you should keep in mind that the values have only limited relevance

Expectation value of <S**2>     :     0.758822
Ideal value S*(S+1) for S=0.5   :     0.750000
Deviation                       :     0.008822

             **** THE GBW FILE WAS UPDATED (boron_2.gbw) ****
             **** DENSITY FILE WAS UPDATED (boron_2.scfp) ****
----------------
ORBITAL ENERGIES
----------------
                 SPIN UP ORBITALS
  NO   OCC          E(Eh)            E(eV) 
   0   1.0000     -19.230099      -523.2776 
   1   1.0000     -10.290173      -280.0098 
   2   1.0000     -10.290089      -280.0076 
   3   1.0000     -10.272962      -279.5415 
   4   1.0000     -10.272929      -279.5406 
   5   1.0000     -10.271934      -279.5135 
   6   1.0000     -10.269920      -279.4587 
   7   1.0000     -10.269904      -279.4583 
   8   1.0000     -10.261651      -279.2337 
   9   1.0000     -10.261520      -279.2302 
  10   1.0000      -6.843014      -186.2079 
  11   1.0000      -1.121746       -30.5243 
  12   1.0000      -0.979862       -26.6634 
  13   1.0000      -0.945624       -25.7317 
  14   1.0000      -0.892069       -24.2744 
  15   1.0000      -0.825797       -22.4711 
  16   1.0000      -0.819853       -22.3093 
  17   1.0000      -0.810666       -22.0593 
  18   1.0000      -0.748072       -20.3561 
  19   1.0000      -0.691063       -18.8048 
  20   1.0000      -0.677916       -18.4470 
  21   1.0000      -0.616255       -16.7691 
  22   1.0000      -0.589317       -16.0361 
  23   1.0000      -0.582907       -15.8617 
  24   1.0000      -0.555821       -15.1247 
  25   1.0000      -0.552691       -15.0395 
  26   1.0000      -0.541222       -14.7274 
  27   1.0000      -0.537929       -14.6378 
  28   1.0000      -0.525987       -14.3128 
  29   1.0000      -0.508053       -13.8248 
  30   1.0000      -0.506142       -13.7728 
  31   1.0000      -0.498023       -13.5519 
  32   1.0000      -0.478976       -13.0336 
  33   1.0000      -0.475489       -12.9387 
  34   1.0000      -0.471215       -12.8224 
  35   1.0000      -0.457922       -12.4607 
  36   1.0000      -0.456105       -12.4112 
  37   1.0000      -0.445950       -12.1349 
  38   1.0000      -0.436012       -11.8645 
  39   1.0000      -0.431526       -11.7424 
  40   1.0000      -0.425923       -11.5899 
  41   1.0000      -0.404581       -11.0092 
  42   1.0000      -0.349911        -9.5216 
  43   0.0000       0.079987         2.1766 
  44   0.0000       0.092595         2.5196 
  45   0.0000       0.098169         2.6713 
  46   0.0000       0.100852         2.7443 
  47   0.0000       0.115711         3.1487 
  48   0.0000       0.119957         3.2642 
  49   0.0000       0.130373         3.5476 
  50   0.0000       0.134062         3.6480 
  51   0.0000       0.139860         3.8058 
  52   0.0000       0.149647         4.0721 
  53   0.0000       0.153656         4.1812 
  54   0.0000       0.156091         4.2474 
  55   0.0000       0.164221         4.4687 
  56   0.0000       0.172637         4.6977 
  57   0.0000       0.179934         4.8963 
  58   0.0000       0.180324         4.9069 
  59   0.0000       0.193283         5.2595 
  60   0.0000       0.198738         5.4079 
  61   0.0000       0.203145         5.5278 
  62   0.0000       0.204538         5.5658 
  63   0.0000       0.214908         5.8479 
  64   0.0000       0.217252         5.9117 
  65   0.0000       0.228247         6.2109 
  66   0.0000       0.239574         6.5192 
  67   0.0000       0.239789         6.5250 
  68   0.0000       0.248399         6.7593 
  69   0.0000       0.260875         7.0988 
  70   0.0000       0.272054         7.4030 
  71   0.0000       0.278724         7.5845 
  72   0.0000       0.290425         7.9029 
  73   0.0000       0.299766         8.1570 
  74   0.0000       0.322531         8.7765 
  75   0.0000       0.324793         8.8381 
  76   0.0000       0.333552         9.0764 
  77   0.0000       0.337386         9.1807 
  78   0.0000       0.345110         9.3909 
  79   0.0000       0.352280         9.5860 
  80   0.0000       0.354696         9.6518 
  81   0.0000       0.357528         9.7288 
  82   0.0000       0.366447         9.9715 
  83   0.0000       0.368257        10.0208 
  84   0.0000       0.378248        10.2926 
  85   0.0000       0.379046        10.3144 
  86   0.0000       0.400226        10.8907 
  87   0.0000       0.402385        10.9495 
  88   0.0000       0.409243        11.1361 
  89   0.0000       0.411179        11.1888 
  90   0.0000       0.414552        11.2805 
  91   0.0000       0.422148        11.4872 
  92   0.0000       0.422754        11.5037 
  93   0.0000       0.430656        11.7187 
  94   0.0000       0.438302        11.9268 
  95   0.0000       0.439605        11.9622 
  96   0.0000       0.447559        12.1787 
  97   0.0000       0.449136        12.2216 
  98   0.0000       0.460250        12.5241 
  99   0.0000       0.461193        12.5497 
 100   0.0000       0.463116        12.6020 
 101   0.0000       0.466558        12.6957 
 102   0.0000       0.468758        12.7556 
 103   0.0000       0.479948        13.0601 
 104   0.0000       0.482608        13.1324 
 105   0.0000       0.498846        13.5743 
 106   0.0000       0.499610        13.5951 
 107   0.0000       0.516889        14.0653 
 108   0.0000       0.521305        14.1854 
 109   0.0000       0.543360        14.7856 
 110   0.0000       0.543696        14.7947 
 111   0.0000       0.551067        14.9953 
 112   0.0000       0.560577        15.2541 
 113   0.0000       0.566774        15.4227 
 114   0.0000       0.573327        15.6010 
 115   0.0000       0.577889        15.7252 
 116   0.0000       0.583714        15.8837 
 117   0.0000       0.588697        16.0192 
 118   0.0000       0.595197        16.1961 
 119   0.0000       0.615715        16.7545 
 120   0.0000       0.627488        17.0748 
 121   0.0000       0.654813        17.8184 
 122   0.0000       0.662363        18.0238 
 123   0.0000       0.664283        18.0761 
 124   0.0000       0.718301        19.5460 
 125   0.0000       0.726336        19.7646 
 126   0.0000       0.734460        19.9857 
 127   0.0000       0.744956        20.2713 
 128   0.0000       0.756761        20.5925 
 129   0.0000       0.774654        21.0794 
 130   0.0000       0.801644        21.8138 
 131   0.0000       0.812763        22.1164 
 132   0.0000       0.826095        22.4792 
 133   0.0000       0.842451        22.9243 
 134   0.0000       0.852733        23.2040 
 135   0.0000       0.863669        23.5016 
 136   0.0000       0.886562        24.1246 
 137   0.0000       0.887486        24.1497 
 138   0.0000       0.917465        24.9655 
 139   0.0000       0.923869        25.1398 
 140   0.0000       0.934391        25.4261 
 141   0.0000       0.944124        25.6909 
 142   0.0000       0.945179        25.7196 
 143   0.0000       0.951129        25.8815 
 144   0.0000       0.960808        26.1449 
 145   0.0000       0.973740        26.4968 
 146   0.0000       0.996244        27.1092 
 147   0.0000       1.002502        27.2795 
 148   0.0000       1.004213        27.3260 
 149   0.0000       1.028800        27.9951 
 150   0.0000       1.038215        28.2513 
 151   0.0000       1.050560        28.5872 
 152   0.0000       1.052526        28.6407 
 153   0.0000       1.068595        29.0780 
 154   0.0000       1.088437        29.6179 
 155   0.0000       1.092731        29.7347 
 156   0.0000       1.110436        30.2165 
 157   0.0000       1.120694        30.4956 
 158   0.0000       1.124291        30.5935 
 159   0.0000       1.133241        30.8370 
 160   0.0000       1.133783        30.8518 
 161   0.0000       1.146818        31.2065 
 162   0.0000       1.148387        31.2492 
 163   0.0000       1.161748        31.6128 
 164   0.0000       1.162502        31.6333 
 165   0.0000       1.168462        31.7955 
 166   0.0000       1.172025        31.8924 
 167   0.0000       1.177889        32.0520 
 168   0.0000       1.186193        32.2780 
 169   0.0000       1.188916        32.3520 
 170   0.0000       1.199779        32.6476 
 171   0.0000       1.200230        32.6599 
 172   0.0000       1.210742        32.9460 
 173   0.0000       1.219042        33.1718 
 174   0.0000       1.220236        33.2043 
 175   0.0000       1.239064        33.7167 
 176   0.0000       1.245912        33.9030 
 177   0.0000       1.254092        34.1256 
 178   0.0000       1.255987        34.1771 
 179   0.0000       1.281575        34.8734 
 180   0.0000       1.292527        35.1715 
 181   0.0000       1.303591        35.4725 
 182   0.0000       1.316948        35.8360 
 183   0.0000       1.321154        35.9504 
 184   0.0000       1.332865        36.2691 
 185   0.0000       1.334565        36.3154 
 186   0.0000       1.353179        36.8219 
 187   0.0000       1.355926        36.8966 
 188   0.0000       1.363111        37.0921 
 189   0.0000       1.386267        37.7222 
 190   0.0000       1.393180        37.9103 
 191   0.0000       1.408076        38.3157 
 192   0.0000       1.412990        38.4494 
 193   0.0000       1.428141        38.8617 
 194   0.0000       1.439018        39.1577 
 195   0.0000       1.454152        39.5695 
 196   0.0000       1.458018        39.6747 
 197   0.0000       1.467293        39.9271 
 198   0.0000       1.482627        40.3443 
 199   0.0000       1.485027        40.4096 
 200   0.0000       1.496695        40.7271 
 201   0.0000       1.502174        40.8762 
 202   0.0000       1.512237        41.1501 
 203   0.0000       1.525809        41.5194 
 204   0.0000       1.528941        41.6046 
 205   0.0000       1.534973        41.7687 
 206   0.0000       1.558352        42.4049 
 207   0.0000       1.560232        42.4561 
 208   0.0000       1.573481        42.8166 
 209   0.0000       1.576864        42.9086 
 210   0.0000       1.590575        43.2817 
 211   0.0000       1.605885        43.6984 
 212   0.0000       1.617819        44.0231 
 213   0.0000       1.640022        44.6273 
 214   0.0000       1.643194        44.7136 
 215   0.0000       1.651493        44.9394 
 216   0.0000       1.670876        45.4668 
 217   0.0000       1.675550        45.5940 
 218   0.0000       1.679111        45.6909 
 219   0.0000       1.719955        46.8024 
 220   0.0000       1.721859        46.8542 
 221   0.0000       1.727321        47.0028 
 222   0.0000       1.747890        47.5625 
 223   0.0000       1.776533        48.3419 
 224   0.0000       1.788110        48.6569 
 225   0.0000       1.797089        48.9013 
 226   0.0000       1.802802        49.0567 
 227   0.0000       1.807460        49.1835 
 228   0.0000       1.831643        49.8415 
 229   0.0000       1.844699        50.1968 
 230   0.0000       1.865263        50.7564 
 231   0.0000       1.866734        50.7964 
 232   0.0000       1.875173        51.0261 
 233   0.0000       1.892678        51.5024 
 234   0.0000       1.900344        51.7110 
 235   0.0000       1.911280        52.0086 
 236   0.0000       1.926549        52.4241 
 237   0.0000       1.940355        52.7998 
 238   0.0000       1.946908        52.9781 
 239   0.0000       1.959085        53.3094 
 240   0.0000       1.967742        53.5450 
 241   0.0000       1.968361        53.5618 
 242   0.0000       1.981497        53.9193 
 243   0.0000       1.991019        54.1784 
 244   0.0000       2.000286        54.4306 
 245   0.0000       2.017075        54.8874 
 246   0.0000       2.055815        55.9416 
 247   0.0000       2.058753        56.0215 
 248   0.0000       2.062456        56.1223 
 249   0.0000       2.072279        56.3896 
 250   0.0000       2.098675        57.1079 
 251   0.0000       2.110640        57.4334 
 252   0.0000       2.118184        57.6387 
 253   0.0000       2.135046        58.0975 
 254   0.0000       2.151156        58.5359 
 255   0.0000       2.156177        58.6726 
 256   0.0000       2.177930        59.2645 
 257   0.0000       2.195619        59.7458 
 258   0.0000       2.196762        59.7769 
 259   0.0000       2.210269        60.1445 
 260   0.0000       2.241317        60.9893 
 261   0.0000       2.245679        61.1080 
 262   0.0000       2.257545        61.4309 
 263   0.0000       2.281749        62.0895 
 264   0.0000       2.286685        62.2239 
 265   0.0000       2.307785        62.7980 
 266   0.0000       2.317519        63.0629 
 267   0.0000       2.355948        64.1086 
 268   0.0000       2.381271        64.7977 
 269   0.0000       2.392807        65.1116 
 270   0.0000       2.401776        65.3556 
 271   0.0000       2.449026        66.6414 
 272   0.0000       2.454506        66.7905 
 273   0.0000       2.509474        68.2863 
 274   0.0000       2.526471        68.7488 
 275   0.0000       2.532954        68.9252 
 276   0.0000       2.570798        69.9550 
 277   0.0000       2.606956        70.9389 
 278   0.0000       2.608233        70.9736 
 279   0.0000       2.616683        71.2036 
 280   0.0000       2.642559        71.9077 
 281   0.0000       2.645365        71.9840 
 282   0.0000       2.674449        72.7755 
 283   0.0000       2.687073        73.1190 
 284   0.0000       2.690039        73.1997 
 285   0.0000       2.707844        73.6842 
 286   0.0000       2.720984        74.0417 
 287   0.0000       2.729457        74.2723 
 288   0.0000       2.763050        75.1864 
 289   0.0000       2.769438        75.3603 
 290   0.0000       2.771376        75.4130 
 291   0.0000       2.848663        77.5161 
 292   0.0000       2.872781        78.1723 
 293   0.0000       2.900875        78.9368 
 294   0.0000       3.124561        85.0236 
 295   0.0000       3.128562        85.1325 
 296   0.0000       3.146093        85.6096 
 297   0.0000       3.165131        86.1276 
 298   0.0000       3.172978        86.3411 
 299   0.0000       3.211611        87.3924 
 300   0.0000       3.222533        87.6896 
 301   0.0000       3.232692        87.9660 
 302   0.0000       3.255619        88.5899 
 303   0.0000       3.286145        89.4206 
 304   0.0000       3.307015        89.9885 
 305   0.0000       3.310559        90.0849 
 306   0.0000       3.318969        90.3137 
 307   0.0000       3.332725        90.6881 
 308   0.0000       3.343270        90.9750 
 309   0.0000       3.368413        91.6592 
 310   0.0000       3.386368        92.1478 
 311   0.0000       3.387547        92.1798 
 312   0.0000       3.401637        92.5633 
 313   0.0000       3.407200        92.7146 
 314   0.0000       3.407536        92.7238 
 315   0.0000       3.416450        92.9663 
 316   0.0000       3.426004        93.2263 
 317   0.0000       3.448190        93.8300 
 318   0.0000       3.471105        94.4536 
 319   0.0000       3.487356        94.8958 
 320   0.0000       3.490285        94.9755 
 321   0.0000       3.513467        95.6063 
 322   0.0000       3.531632        96.1006 
 323   0.0000       3.556284        96.7714 
 324   0.0000       3.566477        97.0488 
 325   0.0000       3.567492        97.0764 
 326   0.0000       3.604335        98.0789 
 327   0.0000       3.613305        98.3230 
 328   0.0000       3.616272        98.4038 
 329   0.0000       3.633928        98.8842 
 330   0.0000       3.646215        99.2185 
 331   0.0000       3.649293        99.3023 
 332   0.0000       3.656662        99.5028 
 333   0.0000       3.665429        99.7414 
 334   0.0000       3.685972       100.3004 
 335   0.0000       3.688786       100.3770 
 336   0.0000       3.716698       101.1365 
 337   0.0000       3.717071       101.1466 
 338   0.0000       3.722038       101.2818 
 339   0.0000       3.741023       101.7984 
 340   0.0000       3.780597       102.8753 
 341   0.0000       3.781525       102.9005 
 342   0.0000       3.805089       103.5417 
 343   0.0000       3.816011       103.8389 
 344   0.0000       3.821697       103.9937 
 345   0.0000       3.829579       104.2081 
 346   0.0000       3.844985       104.6274 
 347   0.0000       3.860468       105.0487 
 348   0.0000       3.872568       105.3779 
 349   0.0000       3.877418       105.5099 
 350   0.0000       3.887353       105.7803 
 351   0.0000       3.898241       106.0765 
 352   0.0000       3.899069       106.0991 
 353   0.0000       3.921307       106.7042 
 354   0.0000       3.929555       106.9286 
 355   0.0000       3.936335       107.1131 
 356   0.0000       3.943224       107.3006 
 357   0.0000       3.949782       107.4790 
 358   0.0000       3.951997       107.5393 
 359   0.0000       3.961413       107.7955 
 360   0.0000       3.965262       107.9003 
 361   0.0000       3.978879       108.2708 
 362   0.0000       3.985775       108.4584 
 363   0.0000       3.986629       108.4817 
 364   0.0000       3.993619       108.6719 
 365   0.0000       3.994790       108.7038 
 366   0.0000       4.007863       109.0595 
 367   0.0000       4.008678       109.0817 
 368   0.0000       4.012459       109.1846 
 369   0.0000       4.020729       109.4096 
 370   0.0000       4.036885       109.8492 
 371   0.0000       4.038816       109.9018 
 372   0.0000       4.048273       110.1591 
 373   0.0000       4.056513       110.3833 
 374   0.0000       4.059645       110.4685 
 375   0.0000       4.066308       110.6499 
 376   0.0000       4.093506       111.3900 
 377   0.0000       4.116564       112.0174 
 378   0.0000       4.119150       112.0878 
 379   0.0000       4.140082       112.6574 
 380   0.0000       4.143775       112.7578 
 381   0.0000       4.146864       112.8419 
 382   0.0000       4.163537       113.2956 
 383   0.0000       4.174992       113.6073 
 384   0.0000       4.206151       114.4552 
 385   0.0000       4.225243       114.9747 
 386   0.0000       4.229156       115.0812 
 387   0.0000       4.253935       115.7555 
 388   0.0000       4.267087       116.1133 
 389   0.0000       4.278623       116.4273 
 390   0.0000       4.289048       116.7109 
 391   0.0000       4.312121       117.3388 
 392   0.0000       4.321943       117.6060 
 393   0.0000       4.335358       117.9711 
 394   0.0000       4.356797       118.5545 
 395   0.0000       4.372227       118.9744 
 396   0.0000       4.383830       119.2901 
 397   0.0000       4.394207       119.5725 
 398   0.0000       4.397680       119.6670 
 399   0.0000       4.405836       119.8889 
 400   0.0000       4.417001       120.1927 
 401   0.0000       4.431300       120.5818 
 402   0.0000       4.464112       121.4747 
 403   0.0000       4.465337       121.5080 
 404   0.0000       4.478780       121.8738 
 405   0.0000       4.500852       122.4744 
 406   0.0000       4.510525       122.7376 
 407   0.0000       4.528860       123.2365 
 408   0.0000       4.541123       123.5702 
 409   0.0000       4.545040       123.6768 
 410   0.0000       4.551764       123.8598 
 411   0.0000       4.557706       124.0215 
 412   0.0000       4.565978       124.2466 
 413   0.0000       4.593613       124.9986 
 414   0.0000       4.598657       125.1358 
 415   0.0000       4.620557       125.7318 
 416   0.0000       4.623766       125.8191 
 417   0.0000       4.638574       126.2220 
 418   0.0000       4.649650       126.5234 
 419   0.0000       4.655420       126.6804 
 420   0.0000       4.667342       127.0048 
 421   0.0000       4.673885       127.1829 
 422   0.0000       4.678382       127.3053 
 423   0.0000       4.692842       127.6987 
 424   0.0000       4.694223       127.7363 
 425   0.0000       4.703584       127.9910 
 426   0.0000       4.711601       128.2092 
 427   0.0000       4.714713       128.2939 
 428   0.0000       4.721646       128.4825 
 429   0.0000       4.740787       129.0034 
 430   0.0000       4.741549       129.0241 
 431   0.0000       4.764504       129.6487 
 432   0.0000       4.764710       129.6543 
 433   0.0000       4.770171       129.8030 
 434   0.0000       4.777110       129.9918 
 435   0.0000       4.783649       130.1697 
 436   0.0000       4.792352       130.4065 
 437   0.0000       4.797375       130.5432 
 438   0.0000       4.812255       130.9481 
 439   0.0000       4.816990       131.0770 
 440   0.0000       4.829901       131.4283 
 441   0.0000       4.831855       131.4815 
 442   0.0000       4.834030       131.5406 
 443   0.0000       4.841072       131.7323 
 444   0.0000       4.845799       131.8609 
 445   0.0000       4.866378       132.4209 
 446   0.0000       4.875452       132.6678 
 447   0.0000       4.881835       132.8415 
 448   0.0000       4.893856       133.1686 
 449   0.0000       4.917534       133.8129 
 450   0.0000       4.922741       133.9546 
 451   0.0000       4.923878       133.9855 
 452   0.0000       4.939705       134.4162 
 453   0.0000       4.948583       134.6578 
 454   0.0000       4.958782       134.9353 
 455   0.0000       4.964644       135.0948 
 456   0.0000       4.965158       135.1088 
 457   0.0000       4.976600       135.4202 
 458   0.0000       4.997132       135.9789 
 459   0.0000       5.007118       136.2506 
 460   0.0000       5.013044       136.4119 
 461   0.0000       5.014635       136.4551 
 462   0.0000       5.022650       136.6732 
 463   0.0000       5.033257       136.9619 
 464   0.0000       5.050222       137.4235 
 465   0.0000       5.071186       137.9940 
 466   0.0000       5.080495       138.2473 
 467   0.0000       5.093380       138.5979 
 468   0.0000       5.105095       138.9167 
 469   0.0000       5.111891       139.1016 
 470   0.0000       5.133266       139.6833 
 471   0.0000       5.143064       139.9499 
 472   0.0000       5.170796       140.7045 
 473   0.0000       5.186265       141.1254 
 474   0.0000       5.187374       141.1556 
 475   0.0000       5.194167       141.3405 
 476   0.0000       5.202253       141.5605 
 477   0.0000       5.217537       141.9764 
 478   0.0000       5.226288       142.2145 
 479   0.0000       5.243693       142.6881 
 480   0.0000       5.245723       142.7434 
 481   0.0000       5.256072       143.0250 
 482   0.0000       5.272017       143.4589 
 483   0.0000       5.288687       143.9125 
 484   0.0000       5.298443       144.1780 
 485   0.0000       5.327832       144.9777 
 486   0.0000       5.336571       145.2155 
 487   0.0000       5.359828       145.8483 
 488   0.0000       5.365297       145.9972 
 489   0.0000       5.388775       146.6360 
 490   0.0000       5.401279       146.9763 
 491   0.0000       5.430535       147.7724 
 492   0.0000       5.461064       148.6031 
 493   0.0000       5.464999       148.7102 
 494   0.0000       5.489680       149.3818 
 495   0.0000       5.492130       149.4484 
 496   0.0000       5.503539       149.7589 
 497   0.0000       5.525031       150.3437 
 498   0.0000       5.537090       150.6719 
 499   0.0000       5.550223       151.0292 
 500   0.0000       5.561953       151.3484 
 501   0.0000       5.568992       151.5400 
 502   0.0000       5.574751       151.6967 
 503   0.0000       5.581716       151.8862 
 504   0.0000       5.586369       152.0128 
 505   0.0000       5.605672       152.5381 
 506   0.0000       5.616342       152.8284 
 507   0.0000       5.625507       153.0778 
 508   0.0000       5.632971       153.2809 
 509   0.0000       5.664022       154.1259 
 510   0.0000       5.667476       154.2199 
 511   0.0000       5.700179       155.1098 
 512   0.0000       5.711081       155.4064 
 513   0.0000       5.713158       155.4629 
 514   0.0000       5.721988       155.7032 
 515   0.0000       5.748402       156.4220 
 516   0.0000       5.757786       156.6773 
 517   0.0000       5.781699       157.3280 
 518   0.0000       5.811906       158.1500 
 519   0.0000       5.819460       158.3555 
 520   0.0000       5.839631       158.9044 
 521   0.0000       5.847011       159.1053 
 522   0.0000       5.875186       159.8719 
 523   0.0000       5.876652       159.9118 
 524   0.0000       5.892449       160.3417 
 525   0.0000       5.910611       160.8359 
 526   0.0000       5.920051       161.0928 
 527   0.0000       5.922468       161.1585 
 528   0.0000       5.929644       161.3538 
 529   0.0000       5.931090       161.3932 
 530   0.0000       5.940714       161.6550 
 531   0.0000       5.945935       161.7971 
 532   0.0000       5.964181       162.2936 
 533   0.0000       5.968601       162.4139 
 534   0.0000       5.978121       162.6729 
 535   0.0000       5.987901       162.9391 
 536   0.0000       6.003549       163.3649 
 537   0.0000       6.010334       163.5495 
 538   0.0000       6.013500       163.6357 
 539   0.0000       6.023099       163.8969 
 540   0.0000       6.029418       164.0688 
 541   0.0000       6.044784       164.4869 
 542   0.0000       6.055703       164.7841 
 543   0.0000       6.080113       165.4483 
 544   0.0000       6.088489       165.6762 
 545   0.0000       6.099174       165.9670 
 546   0.0000       6.114545       166.3852 
 547   0.0000       6.115283       166.4053 
 548   0.0000       6.135313       166.9503 
 549   0.0000       6.164047       167.7323 
 550   0.0000       6.169239       167.8735 
 551   0.0000       6.198207       168.6618 
 552   0.0000       6.201881       168.7618 
 553   0.0000       6.210464       168.9953 
 554   0.0000       6.245601       169.9514 
 555   0.0000       6.252375       170.1358 
 556   0.0000       6.277781       170.8271 
 557   0.0000       6.279153       170.8645 
 558   0.0000       6.286491       171.0641 
 559   0.0000       6.304962       171.5667 
 560   0.0000       6.327957       172.1925 
 561   0.0000       6.336509       172.4252 
 562   0.0000       6.342488       172.5879 
 563   0.0000       6.347995       172.7377 
 564   0.0000       6.358632       173.0272 
 565   0.0000       6.371389       173.3743 
 566   0.0000       6.388720       173.8459 
 567   0.0000       6.390926       173.9059 
 568   0.0000       6.625821       180.2978 
 569   0.0000       6.836571       186.0325 
 570   0.0000       6.925806       188.4608 
 571   0.0000      10.125051       275.5166 
 572   0.0000      11.521484       313.5155 
 573   0.0000      12.406834       337.6071 
 574   0.0000      13.491942       367.1344 
 575   0.0000      13.823240       376.1495 
 576   0.0000      15.149584       412.2411 
 577   0.0000      15.405083       419.1936 
 578   0.0000      16.539911       450.0738 
 579   0.0000      17.761284       483.3091 
 580   0.0000      18.648153       507.4420 
 581   0.0000      19.182921       521.9938 

                 SPIN DOWN ORBITALS
  NO   OCC          E(Eh)            E(eV) 
   0   1.0000     -19.215029      -522.8675 
   1   1.0000     -10.287025      -279.9242 
   2   1.0000     -10.286950      -279.9221 
   3   1.0000     -10.272973      -279.5418 
   4   1.0000     -10.272941      -279.5409 
   5   1.0000     -10.271874      -279.5119 
   6   1.0000     -10.269955      -279.4597 
   7   1.0000     -10.269939      -279.4592 
   8   1.0000     -10.261720      -279.2356 
   9   1.0000     -10.261589      -279.2320 
  10   1.0000      -6.844013      -186.2351 
  11   1.0000      -1.080483       -29.4014 
  12   1.0000      -0.976186       -26.5634 
  13   1.0000      -0.941475       -25.6189 
  14   1.0000      -0.890303       -24.2264 
  15   1.0000      -0.825274       -22.4568 
  16   1.0000      -0.819320       -22.2948 
  17   1.0000      -0.809881       -22.0380 
  18   1.0000      -0.745077       -20.2746 
  19   1.0000      -0.683152       -18.5895 
  20   1.0000      -0.667594       -18.1661 
  21   1.0000      -0.611875       -16.6500 
  22   1.0000      -0.587722       -15.9927 
  23   1.0000      -0.569322       -15.4920 
  24   1.0000      -0.554150       -15.0792 
  25   1.0000      -0.545751       -14.8506 
  26   1.0000      -0.539718       -14.6865 
  27   1.0000      -0.535545       -14.5729 
  28   1.0000      -0.515225       -14.0200 
  29   1.0000      -0.506540       -13.7837 
  30   1.0000      -0.497697       -13.5430 
  31   1.0000      -0.497326       -13.5329 
  32   1.0000      -0.475010       -12.9257 
  33   1.0000      -0.469444       -12.7742 
  34   1.0000      -0.455489       -12.3945 
  35   1.0000      -0.445224       -12.1152 
  36   1.0000      -0.436081       -11.8664 
  37   1.0000      -0.436039       -11.8652 
  38   1.0000      -0.433946       -11.8083 
  39   1.0000      -0.422229       -11.4894 
  40   1.0000      -0.394363       -10.7312 
  41   1.0000      -0.391612       -10.6563 
  42   0.0000      -0.066390        -1.8066 
  43   0.0000       0.080572         2.1925 
  44   0.0000       0.094091         2.5603 
  45   0.0000       0.098802         2.6885 
  46   0.0000       0.101127         2.7518 
  47   0.0000       0.116880         3.1805 
  48   0.0000       0.120234         3.2717 
  49   0.0000       0.131954         3.5906 
  50   0.0000       0.134158         3.6506 
  51   0.0000       0.140024         3.8103 
  52   0.0000       0.150022         4.0823 
  53   0.0000       0.154179         4.1954 
  54   0.0000       0.156587         4.2610 
  55   0.0000       0.164537         4.4773 
  56   0.0000       0.172934         4.7058 
  57   0.0000       0.180085         4.9003 
  58   0.0000       0.180764         4.9188 
  59   0.0000       0.194109         5.2820 
  60   0.0000       0.199383         5.4255 
  61   0.0000       0.203794         5.5455 
  62   0.0000       0.205883         5.6024 
  63   0.0000       0.215258         5.8575 
  64   0.0000       0.218186         5.9371 
  65   0.0000       0.229534         6.2459 
  66   0.0000       0.240166         6.5352 
  67   0.0000       0.242687         6.6039 
  68   0.0000       0.248483         6.7616 
  69   0.0000       0.261540         7.1169 
  70   0.0000       0.272877         7.4254 
  71   0.0000       0.280490         7.6325 
  72   0.0000       0.291393         7.9292 
  73   0.0000       0.300074         8.1654 
  74   0.0000       0.323966         8.8156 
  75   0.0000       0.325356         8.8534 
  76   0.0000       0.334130         9.0921 
  77   0.0000       0.338852         9.2206 
  78   0.0000       0.345632         9.4051 
  79   0.0000       0.354748         9.6532 
  80   0.0000       0.356537         9.7019 
  81   0.0000       0.360366         9.8060 
  82   0.0000       0.367326         9.9954 
  83   0.0000       0.369402        10.0519 
  84   0.0000       0.379187        10.3182 
  85   0.0000       0.380364        10.3502 
  86   0.0000       0.402073        10.9410 
  87   0.0000       0.404658        11.0113 
  88   0.0000       0.409469        11.1422 
  89   0.0000       0.411928        11.2091 
  90   0.0000       0.415837        11.3155 
  91   0.0000       0.423422        11.5219 
  92   0.0000       0.424064        11.5394 
  93   0.0000       0.432221        11.7613 
  94   0.0000       0.439222        11.9518 
  95   0.0000       0.442218        12.0334 
  96   0.0000       0.447677        12.1819 
  97   0.0000       0.450005        12.2453 
  98   0.0000       0.461161        12.5488 
  99   0.0000       0.463671        12.6171 
 100   0.0000       0.463911        12.6237 
 101   0.0000       0.468470        12.7477 
 102   0.0000       0.469484        12.7753 
 103   0.0000       0.481182        13.0936 
 104   0.0000       0.483840        13.1660 
 105   0.0000       0.500746        13.6260 
 106   0.0000       0.505536        13.7563 
 107   0.0000       0.519234        14.1291 
 108   0.0000       0.523234        14.2379 
 109   0.0000       0.543933        14.8012 
 110   0.0000       0.545633        14.8474 
 111   0.0000       0.552332        15.0297 
 112   0.0000       0.563351        15.3295 
 113   0.0000       0.568747        15.4764 
 114   0.0000       0.579242        15.7620 
 115   0.0000       0.580165        15.7871 
 116   0.0000       0.585806        15.9406 
 117   0.0000       0.591784        16.1033 
 118   0.0000       0.596733        16.2379 
 119   0.0000       0.617592        16.8055 
 120   0.0000       0.629699        17.1350 
 121   0.0000       0.657295        17.8859 
 122   0.0000       0.665689        18.1143 
 123   0.0000       0.667642        18.1675 
 124   0.0000       0.719029        19.5658 
 125   0.0000       0.728462        19.8225 
 126   0.0000       0.743756        20.2386 
 127   0.0000       0.746611        20.3163 
 128   0.0000       0.758866        20.6498 
 129   0.0000       0.774887        21.0857 
 130   0.0000       0.802633        21.8408 
 131   0.0000       0.813929        22.1481 
 132   0.0000       0.828108        22.5340 
 133   0.0000       0.843345        22.9486 
 134   0.0000       0.853652        23.2290 
 135   0.0000       0.864423        23.5222 
 136   0.0000       0.888184        24.1687 
 137   0.0000       0.889136        24.1946 
 138   0.0000       0.918771        25.0010 
 139   0.0000       0.924640        25.1607 
 140   0.0000       0.934762        25.4362 
 141   0.0000       0.944888        25.7117 
 142   0.0000       0.945559        25.7300 
 143   0.0000       0.952548        25.9201 
 144   0.0000       0.961900        26.1746 
 145   0.0000       0.974148        26.5079 
 146   0.0000       0.996825        27.1250 
 147   0.0000       1.003457        27.3055 
 148   0.0000       1.005883        27.3715 
 149   0.0000       1.030893        28.0520 
 150   0.0000       1.038955        28.2714 
 151   0.0000       1.051379        28.6095 
 152   0.0000       1.053386        28.6641 
 153   0.0000       1.069589        29.1050 
 154   0.0000       1.088817        29.6282 
 155   0.0000       1.093624        29.7590 
 156   0.0000       1.111165        30.2363 
 157   0.0000       1.121302        30.5122 
 158   0.0000       1.125123        30.6162 
 159   0.0000       1.134202        30.8632 
 160   0.0000       1.134726        30.8775 
 161   0.0000       1.148347        31.2481 
 162   0.0000       1.150801        31.3149 
 163   0.0000       1.162113        31.6227 
 164   0.0000       1.163271        31.6542 
 165   0.0000       1.168965        31.8092 
 166   0.0000       1.174029        31.9469 
 167   0.0000       1.179693        32.1011 
 168   0.0000       1.186943        32.2984 
 169   0.0000       1.189103        32.3571 
 170   0.0000       1.200467        32.6664 
 171   0.0000       1.200846        32.6767 
 172   0.0000       1.211873        32.9767 
 173   0.0000       1.219707        33.1899 
 174   0.0000       1.220420        33.2093 
 175   0.0000       1.239334        33.7240 
 176   0.0000       1.248879        33.9837 
 177   0.0000       1.255273        34.1577 
 178   0.0000       1.256847        34.2006 
 179   0.0000       1.281814        34.8799 
 180   0.0000       1.294822        35.2339 
 181   0.0000       1.305297        35.5189 
 182   0.0000       1.318749        35.8850 
 183   0.0000       1.322264        35.9806 
 184   0.0000       1.334983        36.3267 
 185   0.0000       1.335696        36.3461 
 186   0.0000       1.354975        36.8707 
 187   0.0000       1.358506        36.9668 
 188   0.0000       1.364977        37.1429 
 189   0.0000       1.387552        37.7572 
 190   0.0000       1.396258        37.9941 
 191   0.0000       1.410330        38.3770 
 192   0.0000       1.415023        38.5047 
 193   0.0000       1.429442        38.8971 
 194   0.0000       1.440150        39.1885 
 195   0.0000       1.456973        39.6463 
 196   0.0000       1.460537        39.7432 
 197   0.0000       1.469407        39.9846 
 198   0.0000       1.483759        40.3751 
 199   0.0000       1.486288        40.4440 
 200   0.0000       1.498094        40.7652 
 201   0.0000       1.503095        40.9013 
 202   0.0000       1.512761        41.1643 
 203   0.0000       1.527620        41.5686 
 204   0.0000       1.530257        41.6404 
 205   0.0000       1.536391        41.8073 
 206   0.0000       1.561269        42.4843 
 207   0.0000       1.562444        42.5163 
 208   0.0000       1.576627        42.9022 
 209   0.0000       1.578273        42.9470 
 210   0.0000       1.591783        43.3146 
 211   0.0000       1.607235        43.7351 
 212   0.0000       1.620273        44.0899 
 213   0.0000       1.642005        44.6812 
 214   0.0000       1.644617        44.7523 
 215   0.0000       1.653249        44.9872 
 216   0.0000       1.673789        45.5461 
 217   0.0000       1.679102        45.6907 
 218   0.0000       1.682276        45.7770 
 219   0.0000       1.720961        46.8297 
 220   0.0000       1.726647        46.9845 
 221   0.0000       1.728983        47.0480 
 222   0.0000       1.750679        47.6384 
 223   0.0000       1.782766        48.5115 
 224   0.0000       1.791598        48.7519 
 225   0.0000       1.799097        48.9559 
 226   0.0000       1.809549        49.2403 
 227   0.0000       1.813057        49.3358 
 228   0.0000       1.832284        49.8590 
 229   0.0000       1.846440        50.2442 
 230   0.0000       1.866422        50.7879 
 231   0.0000       1.867783        50.8250 
 232   0.0000       1.875802        51.0432 
 233   0.0000       1.894893        51.5627 
 234   0.0000       1.902188        51.7612 
 235   0.0000       1.913197        52.0607 
 236   0.0000       1.929117        52.4939 
 237   0.0000       1.941078        52.8194 
 238   0.0000       1.948958        53.0338 
 239   0.0000       1.960644        53.3518 
 240   0.0000       1.969251        53.5860 
 241   0.0000       1.970550        53.6214 
 242   0.0000       1.983233        53.9665 
 243   0.0000       1.993114        54.2354 
 244   0.0000       2.001423        54.4615 
 245   0.0000       2.018173        54.9173 
 246   0.0000       2.058278        56.0086 
 247   0.0000       2.060928        56.0807 
 248   0.0000       2.064642        56.1818 
 249   0.0000       2.074347        56.4458 
 250   0.0000       2.100289        57.1518 
 251   0.0000       2.115151        57.5562 
 252   0.0000       2.120308        57.6965 
 253   0.0000       2.138405        58.1890 
 254   0.0000       2.153271        58.5935 
 255   0.0000       2.158808        58.7442 
 256   0.0000       2.181515        59.3620 
 257   0.0000       2.198118        59.8138 
 258   0.0000       2.198352        59.8202 
 259   0.0000       2.213537        60.2334 
 260   0.0000       2.246274        61.1242 
 261   0.0000       2.247748        61.1643 
 262   0.0000       2.261167        61.5295 
 263   0.0000       2.289462        62.2994 
 264   0.0000       2.290212        62.3198 
 265   0.0000       2.310946        62.8840 
 266   0.0000       2.319726        63.1230 
 267   0.0000       2.360075        64.2209 
 268   0.0000       2.385309        64.9075 
 269   0.0000       2.396911        65.2233 
[...]
     77      -0.051508   0.015832  -0.019428  -0.180971   0.072521  -0.045690
     78       0.054277  -0.043633  -0.003004   0.399046  -0.226202   0.014247
     79      -0.021033   0.016684   0.001223  -0.146845   0.082575  -0.006047
     80       0.030459  -0.022942  -0.000022   0.222569  -0.124761   0.009030
     81      -0.012414   0.017082   0.007607  -0.136167   0.085640   0.002521
     82      -0.045482   0.073475   0.037216  -0.567202   0.361255   0.015450
     83       0.024121  -0.037038  -0.018177   0.279687  -0.177663  -0.008033
     84       0.000015  -0.000198   0.000049  -0.000103  -0.000026  -0.000128
     85      -0.000130   0.000026   0.000185  -0.000013   0.000014   0.000008
     86       0.000088  -0.000016  -0.000121  -0.000040   0.000146   0.000109
                  84         85         86    
      0       0.000151   0.000137  -0.000152
      1      -0.003240  -0.000985   0.008304
      2      -0.001270  -0.000484   0.004688
      3      -0.000946   0.000115   0.000193
      4      -0.001736  -0.000236   0.000874
      5      -0.002682   0.000000   0.000921
      6       0.000608   0.000222  -0.000181
      7      -0.001032   0.000042   0.000886
      8      -0.001569  -0.000263   0.000880
      9      -0.000381  -0.000026   0.000632
     10       0.017189   0.004124  -0.031515
     11      -0.009216  -0.002166   0.016523
     12      -0.000853  -0.000883   0.001245
     13       0.023293   0.008153  -0.073891
     14       0.024523   0.008240  -0.074109
     15       0.000186   0.000751  -0.000651
     16      -0.001170   0.000593  -0.000436
     17      -0.000046  -0.000225   0.000281
     18       0.008147  -0.001048  -0.002263
     19      -0.001180   0.000517   0.000176
     20       0.004059  -0.001072  -0.000901
     21       0.002264   0.000055   0.000141
     22       0.027306  -0.001085  -0.008765
     23       0.025579  -0.000532  -0.009921
     24      -0.000045   0.000622   0.000835
     25      -0.000566  -0.000425  -0.000499
     26       0.000045   0.000117   0.000268
     27      -0.001277  -0.000010   0.000146
     28       0.015275   0.003101  -0.008185
     29       0.015035   0.002894  -0.009472
     30      -0.005403  -0.002301   0.001652
     31      -0.001020  -0.000801  -0.000006
     32       0.002932   0.001857  -0.000406
     33      -0.000114   0.000013  -0.000010
     34       0.000189  -0.000010   0.000139
     35      -0.000396  -0.000021   0.000292
     36       0.008030   0.001544   0.000302
     37      -0.031590  -0.006071  -0.002528
     38      -0.003967  -0.000984  -0.000203
     39      -0.064188  -0.012566  -0.004222
     40       0.133934   0.026940   0.009024
     41       0.167728   0.033309   0.011187
     42       0.020387   0.001365   0.001589
     43       0.002456  -0.000904   0.000011
     44      -0.010549  -0.001481  -0.001621
     45      -0.051484  -0.009968  -0.004762
     46       0.241149   0.046427   0.021265
     47      -0.110579  -0.022054  -0.010592
     48       0.000014   0.042425   0.054022
     49      -0.003503  -0.010183  -0.006255
     50       0.002636   0.036799   0.043983
     51      -0.005368  -0.389118  -0.509772
     52      -0.001327  -0.085615  -0.112328
     53      -0.004553  -0.371936  -0.484705
     54      -0.010648  -0.058376  -0.053497
     55       0.038860   0.247149   0.241500
     56      -0.017581  -0.114925  -0.110860
     57       0.015234  -0.061425  -0.095440
     58       0.005992  -0.033109  -0.048680
     59      -0.007948   0.049192   0.070587
     60      -0.018379   0.001687  -0.000118
     61      -0.083823   0.008196  -0.002064
     62      -0.009031   0.001008  -0.000047
     63       0.159979  -0.015459   0.003061
     64       0.349854  -0.034567   0.006722
     65       0.431515  -0.042235   0.008241
     66       0.116134  -0.011607   0.003363
     67       0.643054  -0.063826   0.017919
     68      -0.294225   0.030184  -0.008896
     69      -0.058763   0.003598  -0.002114
     70       0.007228   0.000488   0.000309
     71      -0.029548   0.002676  -0.001618
     72       0.007268   0.051344  -0.042139
     73      -0.004442   0.015229  -0.006987
     74      -0.001334  -0.046894   0.035829
     75      -0.054855  -0.482561   0.404485
     76       0.010085   0.088451  -0.074204
     77       0.054118   0.469067  -0.391079
     78      -0.039842  -0.076734   0.077281
     79       0.015197   0.036788  -0.034832
     80      -0.022391  -0.058365   0.054118
     81       0.008482  -0.059434   0.034421
     82       0.031847  -0.315391   0.197299
     83      -0.013238   0.147800  -0.091276
     84       0.000048  -0.000093  -0.000009
     85       0.000061  -0.000008   0.000026
     86       0.000236  -0.000003  -0.000013


-----------
IR SPECTRUM  
-----------

 Mode    freq (cm**-1)   T**2         TX         TY         TZ
-------------------------------------------------------------------
   6:        76.62    1.679514  (  0.090836  -0.949309  -0.877539)
   7:        86.11    0.220983  (  0.087666   0.329320   0.323799)
   8:       176.17    1.290645  (  0.006995  -1.115599  -0.214557)
   9:       180.24    0.171800  (  0.177649  -0.356765  -0.113839)
  10:       217.02    0.879071  ( -0.924290  -0.156752   0.013703)
  11:       221.39    0.259122  (  0.251379  -0.370434   0.242300)
  12:       250.38    0.377476  ( -0.583563  -0.181683   0.062622)
  13:       280.93    0.449066  (  0.036038   0.170644  -0.647030)
  14:       295.06    0.952608  (  0.970531   0.097722  -0.033596)
  15:       300.05    0.775759  (  0.161919  -0.777802   0.380217)
  16:       314.41    2.416199  ( -0.048994   0.567479  -1.446294)
  17:       347.27    0.144142  ( -0.335690   0.037369  -0.173371)
  18:       353.07    0.075368  (  0.256976  -0.096194   0.008853)
  19:       383.29    0.040177  (  0.175270  -0.026821   0.093478)
  20:       405.10    2.489117  ( -0.001961  -1.336774   0.837943)
  21:       436.04    0.670134  (  0.013290   0.354088  -0.737956)
  22:       456.15    0.114506  (  0.338143  -0.010466  -0.007497)
  23:       465.82    2.806008  ( -1.674954  -0.018640  -0.013705)
  24:       552.21    3.888195  ( -0.003680   0.261686  -1.954406)
  25:       565.40   16.741738  (  0.078832  -2.523930   3.219519)
  26:       657.16    7.730891  ( -0.005300   2.236566   1.651858)
  27:       711.82    5.402858  (  2.323872  -0.004923  -0.049512)
  28:       792.56   15.446270  ( -0.050070   2.679196  -2.875008)
  29:       833.89    0.723847  ( -0.850178  -0.028382  -0.015427)
  30:       893.81    1.242237  ( -0.905711  -0.105643  -0.640910)
  31:       893.94    3.150486  ( -1.734017   0.006273   0.378988)
  32:       950.82    0.001073  ( -0.020945  -0.020221   0.015009)
  33:       968.27    0.154016  ( -0.048724  -0.357993  -0.153242)
  34:       969.56    0.416058  (  0.580195  -0.080867   0.269985)
  35:       972.98    2.541047  (  0.135390  -0.153797  -1.580842)
  36:      1007.66    2.585698  ( -0.111970   1.204937  -1.058908)
  37:      1010.89    1.281019  (  0.061343  -1.119377   0.155729)
  38:      1019.89    3.398785  (  1.837103   0.149342  -0.039186)
  39:      1061.55    0.116300  (  0.020552  -0.054731   0.335979)
  40:      1099.32    0.283033  ( -0.531451  -0.002945   0.024175)
  41:      1103.07    1.153990  ( -1.071270   0.041577  -0.068125)
  42:      1155.12   29.305310  (  5.409983   0.160480  -0.107881)
  43:      1177.98   67.574976  (  0.176547  -4.837086   6.644276)
  44:      1220.39    0.576357  (  0.019553   0.475140  -0.591791)
  45:      1236.28    1.348624  (  1.160691  -0.022720   0.030066)
  46:      1248.34   19.403430  ( -4.402412  -0.124568   0.081739)
  47:      1252.55    9.608472  (  0.030737  -2.105447   2.274779)
  48:      1270.35    3.378276  (  1.836280  -0.041056   0.068302)
  49:      1305.25    4.812220  (  0.033140  -1.381787   1.703463)
  50:      1381.27    0.546995  ( -0.737452  -0.000916  -0.056201)
  51:      1390.59    3.610901  ( -0.013341   0.596909  -1.804002)
  52:      1397.25   28.946890  (  0.139224  -3.197562   4.324708)
  53:      1402.58    1.055469  (  1.015795   0.113376  -0.103801)
  54:      1407.16    0.008841  (  0.010302  -0.085874  -0.036887)
  55:      1413.09   13.563166  ( -0.065597  -2.272237  -2.897551)
  56:      1433.42    4.485163  ( -2.094206   0.287560   0.129513)
  57:      1438.74    2.946820  (  0.278746   1.664083  -0.316144)
  58:      1484.45    0.239517  ( -0.480963  -0.020434   0.088172)
  59:      1491.71    0.546616  (  0.164552   0.696159  -0.186821)
  60:      1492.28    0.394310  ( -0.590702   0.184753  -0.106057)
  61:      1493.82    0.219742  (  0.066968   0.451315   0.107572)
  62:      1505.65    3.990795  (  1.506384   0.175811   1.300267)
  63:      1505.87   11.540303  (  0.608666  -0.351950  -3.323546)
  64:      1513.23    3.709181  (  1.909360  -0.167831   0.188042)
  65:      1517.09    2.940063  ( -1.665480  -0.306644   0.268719)
  66:      1518.95    6.555440  (  0.101279  -0.555936   2.497222)
  67:      1521.99    1.527428  (  0.182909  -1.221859  -0.032151)
  68:      1526.54   19.409008  ( -0.000114   4.398608   0.247496)
  69:      3038.49    7.194279  (  2.503907  -0.952540  -0.131889)
  70:      3040.80   12.274890  (  0.851684   3.386123   0.289301)
  71:      3042.84   57.926542  (  7.244658  -1.911708  -1.336729)
  72:      3044.05   40.121285  (  3.042549   4.596682   3.120048)
  73:      3051.31   51.589778  ( -7.146155  -0.231841  -0.684466)
  74:      3053.35   13.936624  ( -1.522548   0.591521   3.356870)
  75:      3068.39    7.785197  ( -0.096105  -2.219418   1.688238)
  76:      3078.73   24.285232  (  4.892147   0.083594   0.587490)
  77:      3089.15   53.239834  (  0.344045  -0.269237  -7.283473)
  78:      3117.20   30.745309  (  0.291699  -4.971822   2.437458)
  79:      3118.16    9.454897  ( -2.646932  -1.287830  -0.888898)
  80:      3118.90   30.402280  (  0.753099  -3.105375  -4.493525)
  81:      3127.13   13.236914  ( -3.418386   1.145222  -0.489917)
  82:      3128.46   26.270676  ( -0.654861  -4.622960   2.114255)
  83:      3144.76    8.513720  (  0.991279  -2.675008  -0.612716)
  84:      3145.47   37.296774  ( -0.253033  -5.952627  -1.341262)
  85:      3154.52   28.858259  (  5.341144   0.246728  -0.519201)
  86:      3166.49   20.370073  (  0.620438  -0.033481   4.470348)

The first frequency considered to be a vibration is 6
The total number of vibrations considered is 81


--------------------------
THERMOCHEMISTRY AT 298.15K
--------------------------

Temperature         ... 298.15 K
Pressure            ... 1.00 atm
Total Mass          ... 153.05 AMU

Throughout the following assumptions are being made:
  (1) The electronic state is orbitally nondegenerate
      but the spin degeneracy is treated
  (2) There are no thermally accessible electronically excited states
  (3) Hindered rotations indicated by low frequency modes are not
      treated as such but are treated as vibrations and this may
      cause some error
  (4) All equations used are the standard statistical mechanics
      equations for an ideal gas
  (5) All vibrations are strictly harmonic

freq.      76.62  E(vib)   ...       0.49 
freq.      86.11  E(vib)   ...       0.48 
freq.     176.17  E(vib)   ...       0.38 
freq.     180.24  E(vib)   ...       0.37 
freq.     217.02  E(vib)   ...       0.34 
freq.     221.39  E(vib)   ...       0.33 
freq.     250.38  E(vib)   ...       0.30 
freq.     280.93  E(vib)   ...       0.28 
freq.     295.06  E(vib)   ...       0.27 
freq.     300.05  E(vib)   ...       0.26 
freq.     314.41  E(vib)   ...       0.25 
freq.     347.27  E(vib)   ...       0.23 
freq.     353.07  E(vib)   ...       0.22 
freq.     383.29  E(vib)   ...       0.20 
freq.     405.10  E(vib)   ...       0.19 
freq.     436.04  E(vib)   ...       0.17 
freq.     456.15  E(vib)   ...       0.16 
freq.     465.82  E(vib)   ...       0.16 
freq.     552.21  E(vib)   ...       0.12 
freq.     565.40  E(vib)   ...       0.11 
freq.     657.16  E(vib)   ...       0.08 
freq.     711.82  E(vib)   ...       0.07 
freq.     792.56  E(vib)   ...       0.05 
freq.     833.89  E(vib)   ...       0.04 
freq.     893.81  E(vib)   ...       0.03 
freq.     893.94  E(vib)   ...       0.03 
freq.     950.82  E(vib)   ...       0.03 
freq.     968.27  E(vib)   ...       0.03 
freq.     969.56  E(vib)   ...       0.03 
freq.     972.98  E(vib)   ...       0.03 
freq.    1007.66  E(vib)   ...       0.02 
freq.    1010.89  E(vib)   ...       0.02 
freq.    1019.89  E(vib)   ...       0.02 
freq.    1061.55  E(vib)   ...       0.02 
freq.    1099.32  E(vib)   ...       0.02 
freq.    1103.07  E(vib)   ...       0.02 
freq.    1155.12  E(vib)   ...       0.01 
freq.    1177.98  E(vib)   ...       0.01 
freq.    1220.39  E(vib)   ...       0.01 
freq.    1236.28  E(vib)   ...       0.01 
freq.    1248.34  E(vib)   ...       0.01 
freq.    1252.55  E(vib)   ...       0.01 
freq.    1270.35  E(vib)   ...       0.01 
freq.    1305.25  E(vib)   ...       0.01 
freq.    1381.27  E(vib)   ...       0.01 
freq.    1390.59  E(vib)   ...       0.00 
freq.    1397.25  E(vib)   ...       0.00 
freq.    1402.58  E(vib)   ...       0.00 
freq.    1407.16  E(vib)   ...       0.00 
freq.    1413.09  E(vib)   ...       0.00 
freq.    1433.42  E(vib)   ...       0.00 
freq.    1438.74  E(vib)   ...       0.00 
freq.    1484.45  E(vib)   ...       0.00 
freq.    1491.71  E(vib)   ...       0.00 
freq.    1492.28  E(vib)   ...       0.00 
freq.    1493.82  E(vib)   ...       0.00 
freq.    1505.65  E(vib)   ...       0.00 
freq.    1505.87  E(vib)   ...       0.00 
freq.    1513.23  E(vib)   ...       0.00 
freq.    1517.09  E(vib)   ...       0.00 
freq.    1518.95  E(vib)   ...       0.00 
freq.    1521.99  E(vib)   ...       0.00 
freq.    1526.54  E(vib)   ...       0.00 
freq.    3038.49  E(vib)   ...       0.00 
freq.    3040.80  E(vib)   ...       0.00 
freq.    3042.84  E(vib)   ...       0.00 
freq.    3044.05  E(vib)   ...       0.00 
freq.    3051.31  E(vib)   ...       0.00 
freq.    3053.35  E(vib)   ...       0.00 
freq.    3068.39  E(vib)   ...       0.00 
freq.    3078.73  E(vib)   ...       0.00 
freq.    3089.15  E(vib)   ...       0.00 
freq.    3117.20  E(vib)   ...       0.00 
freq.    3118.16  E(vib)   ...       0.00 
freq.    3118.90  E(vib)   ...       0.00 
freq.    3127.13  E(vib)   ...       0.00 
freq.    3128.46  E(vib)   ...       0.00 
freq.    3144.76  E(vib)   ...       0.00 
freq.    3145.47  E(vib)   ...       0.00 
freq.    3154.52  E(vib)   ...       0.00 
freq.    3166.49  E(vib)   ...       0.00 

------------
INNER ENERGY
------------

The inner energy is: U= E(el) + E(ZPE) + E(vib) + E(rot) + E(trans)
    E(el)   - is the total energy from the electronic structure calculation
              = E(kin-el) + E(nuc-el) + E(el-el) + E(nuc-nuc)
    E(ZPE)  - the the zero temperature vibrational energy from the frequency calculation
    E(vib)  - the the finite temperature correction to E(ZPE) due to population
              of excited vibrational states
    E(rot)  - is the rotational thermal energy
    E(trans)- is the translational thermal energy

Summary of contributions to the inner energy U:
Electronic energy                ...   -454.31097990 Eh
Zero point energy                ...      0.26139712 Eh     164.03 kcal/mol
Thermal vibrational correction   ...      0.00956316 Eh       6.00 kcal/mol
Thermal rotational correction    ...      0.00141627 Eh       0.89 kcal/mol
Thermal translational correction ...      0.00141627 Eh       0.89 kcal/mol
-----------------------------------------------------------------------
Total thermal energy                   -454.03718708 Eh


Summary of corrections to the electronic energy:
(perhaps to be used in another calculation)
Total thermal correction                  0.01239570 Eh       7.78 kcal/mol
Non-thermal (ZPE) correction              0.26139712 Eh     164.03 kcal/mol
-----------------------------------------------------------------------
Total correction                          0.27379282 Eh     171.81 kcal/mol


--------
ENTHALPY
--------

The enthalpy is H = U + kB*T
                kB is Boltzmann's constant
Total free energy                 ...   -454.03718708 Eh 
Thermal Enthalpy correction       ...      0.00094421 Eh       0.59 kcal/mol
-----------------------------------------------------------------------
Total Enthalpy                    ...   -454.03624287 Eh


Note: Only C1 symmetry has been detected, increase convergence thresholds 
      if your molecule has a higher symmetry. Symmetry factor of 1.0 is   
      used for the rotational entropy correction. 
 

Note: Rotational entropy computed according to Herzberg 
Infrared and Raman Spectra, Chapter V,1, Van Nostrand Reinhold, 1945 
Point Group:  C1, Symmetry Number:   1  
Rotational constants in cm-1:     0.049259     0.032553     0.026540 

Vibrational entropy computed according to the QRRHO of S. Grimme
Chem.Eur.J. 2012 18 9955


-------
ENTROPY
-------

The entropy contributions are T*S = T*(S(el)+S(vib)+S(rot)+S(trans))
     S(el)   - electronic entropy
     S(vib)  - vibrational entropy
     S(rot)  - rotational entropy
     S(trans)- translational entropy
The entropies will be listed as mutliplied by the temperature to get
units of energy

Electronic entropy                ...      0.00065446 Eh      0.41 kcal/mol
Vibrational entropy               ...      0.01579036 Eh      9.91 kcal/mol
Rotational entropy                ...      0.01426224 Eh      8.95 kcal/mol
Translational entropy             ...      0.01947402 Eh     12.22 kcal/mol
-----------------------------------------------------------------------
Final entropy term                ...      0.05018108 Eh     31.49 kcal/mol

In case the symmetry of your molecule has not been determined correctly
or in case you have a reason to use a different symmetry number we print 
out the resulting rotational entropy values for sn=1,12 :
 --------------------------------------------------------
|  sn= 1 | S(rot)=       0.01426224 Eh      8.95 kcal/mol|
|  sn= 2 | S(rot)=       0.01360779 Eh      8.54 kcal/mol|
|  sn= 3 | S(rot)=       0.01322495 Eh      8.30 kcal/mol|
|  sn= 4 | S(rot)=       0.01295333 Eh      8.13 kcal/mol|
|  sn= 5 | S(rot)=       0.01274264 Eh      8.00 kcal/mol|
|  sn= 6 | S(rot)=       0.01257050 Eh      7.89 kcal/mol|
|  sn= 7 | S(rot)=       0.01242495 Eh      7.80 kcal/mol|
|  sn= 8 | S(rot)=       0.01229887 Eh      7.72 kcal/mol|
|  sn= 9 | S(rot)=       0.01218766 Eh      7.65 kcal/mol|
|  sn=10 | S(rot)=       0.01208819 Eh      7.59 kcal/mol|
|  sn=11 | S(rot)=       0.01199820 Eh      7.53 kcal/mol|
|  sn=12 | S(rot)=       0.01191604 Eh      7.48 kcal/mol|
 --------------------------------------------------------


-------------------
GIBBS FREE ENERGY
-------------------

The Gibbs free energy is G = H - T*S

Total enthalpy                    ...   -454.03624287 Eh 
Total entropy correction          ...     -0.05018108 Eh    -31.49 kcal/mol
-----------------------------------------------------------------------
Final Gibbs free energy         ...   -454.08642394 Eh

For completeness - the Gibbs free energy minus the electronic energy
G-E(el)                           ...      0.22455595 Eh    140.91 kcal/mol


Total Time for Numerical Frequencies  :      5807.422 sec
Time for Reference State(s)           :        28.508 sec
Time for Displacements                :      5717.560 sec

Timings for individual modules:

Sum of individual times         ...      128.954 sec (=   2.149 min)
GTO integral calculation        ...       41.967 sec (=   0.699 min)  32.5 %
SCF iterations                  ...       73.251 sec (=   1.221 min)  56.8 %
SCF Gradient evaluation         ...       13.736 sec (=   0.229 min)  10.7 %
                             ****ORCA TERMINATED NORMALLY****
TOTAL RUN TIME: 0 days 1 hours 39 minutes 6 seconds 842 msec
