
                                 *****************
                                 * O   R   C   A *
                                 *****************

           --- An Ab Initio, DFT and Semiempirical electronic structure package ---

                  #######################################################
                  #                        -***-                        #
                  #          Department of theory and spectroscopy      #
                  #               Directorship: Frank Neese             #
                  #        Max Planck Institute fuer Kohlenforschung    #
                  #                Kaiser Wilhelm Platz 1               #
                  #                 D-45470 Muelheim/Ruhr               #
                  #                      Germany                        #
                  #                                                     #
                  #                  All rights reserved                #
                  #                        -***-                        #
                  #######################################################


                         Program Version 4.2.1 -  RELEASE  -


 With contributions from (in alphabetic order):
   Daniel Aravena         : Magnetic Suceptibility
   Michael Atanasov       : Ab Initio Ligand Field Theory (pilot matlab implementation)
   Alexander A. Auer      : GIAO ZORA, VPT2
   Ute Becker             : Parallelization
   Giovanni Bistoni       : ED, misc. LED, open-shell LED, HFLD
   Martin Brehm           : Molecular dynamics
   Dmytro Bykov           : SCF Hessian
   Vijay G. Chilkuri      : MRCI spin determinant printing, contributions to CSF-ICE
   Dipayan Datta          : RHF DLPNO-CCSD density
   Achintya Kumar Dutta   : EOM-CC, STEOM-CC
   Dmitry Ganyushin       : Spin-Orbit,Spin-Spin,Magnetic field MRCI
   Miquel Garcia          : C-PCM Hessian, Gaussian charge scheme
   Yang Guo               : DLPNO-NEVPT2, CIM, IAO-localization
   Andreas Hansen         : Spin unrestricted coupled pair/coupled cluster methods
   Benjamin Helmich-Paris : CASSCF linear response (MC-RPA)
   Lee Huntington         : MR-EOM, pCC
   Robert Izsak           : Overlap fitted RIJCOSX, COSX-SCS-MP3, EOM
   Christian Kollmar      : KDIIS, OOCD, Brueckner-CCSD(T), CCSD density
   Simone Kossmann        : Meta GGA functionals, TD-DFT gradient, OOMP2, MP2 Hessian
   Martin Krupicka        : AUTO-CI
   Lucas Lang             : DCDCAS
   Dagmar Lenk            : GEPOL surface, SMD
   Dimitrios Liakos       : Extrapolation schemes; Compound Job, initial MDCI parallelization
   Dimitrios Manganas     : Further ROCIS development; embedding schemes
   Dimitrios Pantazis     : SARC Basis sets
   Taras Petrenko         : DFT Hessian,TD-DFT gradient, ASA, ECA, R-Raman, ABS, FL, XAS/XES, NRVS
   Peter Pinski           : DLPNO-MP2, DLPNO-MP2 Gradient
   Christoph Reimann      : Effective Core Potentials
   Marius Retegan         : Local ZFS, SOC
   Christoph Riplinger    : Optimizer, TS searches, QM/MM, DLPNO-CCSD(T), (RO)-DLPNO pert. Triples
   Tobias Risthaus        : Range-separated hybrids, TD-DFT gradient, RPA, STAB
   Michael Roemelt        : Original ROCIS implementation
   Masaaki Saitow         : Open-shell DLPNO-CCSD energy and density
   Barbara Sandhoefer     : DKH picture change effects
   Avijit Sen             : IP-ROCIS
   Kantharuban Sivalingam : CASSCF convergence, NEVPT2, FIC-MRCI
   Bernardo de Souza      : ESD, SOC TD-DFT
   Georgi Stoychev        : AutoAux, RI-MP2 NMR
   Willem Van den Heuvel  : Paramagnetic NMR
   Boris Wezisla          : Elementary symmetry handling
   Frank Wennmohs         : Technical directorship


 We gratefully acknowledge several colleagues who have allowed us to
 interface, adapt or use parts of their codes:
   Stefan Grimme, W. Hujo, H. Kruse,             : VdW corrections, initial TS optimization,
                  C. Bannwarth                     DFT functionals, gCP, sTDA/sTD-DF
   Ed Valeev, F. Pavosevic, A. Kumar             : LibInt (2-el integral package), F12 methods
   Garnet Chan, S. Sharma, J. Yang, R. Olivares  : DMRG
   Ulf Ekstrom                                   : XCFun DFT Library
   Mihaly Kallay                                 : mrcc  (arbitrary order and MRCC methods)
   Andreas Klamt, Michael Diedenhofen            : otool_cosmo (COSMO solvation model)
   Jiri Pittner, Ondrej Demel                    : Mk-CCSD
   Frank Weinhold                                : gennbo (NPA and NBO analysis)
   Christopher J. Cramer and Donald G. Truhlar   : smd solvation model
   Lars Goerigk                                  : TD-DFT with DH, B97 family of functionals
   V. Asgeirsson, H. Jonsson                     : NEB implementation
   FAccTs GmbH                                   : IRC, NEB, NEB-TS, Multilevel, MM, QM/MM, CI optimization
   S Lehtola, MJT Oliveira, MAL Marques          : LibXC Library


 Your calculation uses the libint2 library for the computation of 2-el integrals
 For citations please refer to: http://libint.valeyev.net

 Your ORCA version has been built with support for libXC version: 4.2.3
 For citations please refer to: https://tddft.org/programs/libxc/

 This ORCA versions uses:
   CBLAS   interface :  Fast vector & matrix operations
   LAPACKE interface :  Fast linear algebra routines
   SCALAPACK package :  Parallel linear algebra routines


Your calculation utilizes the atom-pairwise dispersion correction
with the Becke-Johnson damping scheme (D3BJ)
Cite in your paper:
S.Grimme, S.Ehrlich, L.Goerigk, J Comput Chem, (2011), 32, 1456–1465 
S.Grimme, J.Antony, S.Ehrlich and H.Krieg, J.Chem.Phys., 132, (2010), 154104 
   

----- Orbital basis set information -----
Your calculation utilizes the basis: aug-pc-2
   H, C-F              : F. Jensen, J. Chem. Phys. 115, 9113 (2001).
                         F. Jensen, J. Chem. Phys. 116, 7372 (2002).
                         F. Jensen, J. Chem. Phys. 117, 9234 (2002).
   Si-Cl               : F. Jensen, T. Helgaker, J. Chem. Phys. 121, 3463 (2004).
   He-B, Ne-Mg, Al, Ar : F. Jensen, J. Phys. Chem. A 111, 11198 (2007).
   K, Ca, Ga-Kr        : F. Jensen, J. Chem. Phys. 136, 094110 (2012).
   Sc-Zn               : F. Jensen, J. Chem. Phys. 138, 014107 (2013).

----- AuxJ basis set information -----
Your calculation utilizes the auxiliary basis: def2/J
   F. Weigend, Phys. Chem. Chem. Phys. 8, 1057 (2006).

================================================================================
                                        WARNINGS
                       Please study these warnings very carefully!
================================================================================


INFO   : the flag for use of LIBINT has been found!

================================================================================
                                       INPUT FILE
================================================================================
NAME = boron_0_2.inp
|  1> ! sp uks wb97x-D3BJ aug-pc-2 grid5 finalgrid6 rijcosx tightscf moread CPCM(acetonitrile)
|  2> 
|  3> %moinp "/cluster/home/ambr/projects/marius_tests_application/vacuum/boron_0_2.gbw"
|  4> 
|  5> %PAL NProcs 20 END
|  6> 
|  7> %SCF
|  8> 	directresetfreq 1
|  9> END
| 10> * xyz 0 2
| 11> C -1.78832884912439 2.13577011764125 -1.32804254202865
| 12> C -3.03148792869992 1.98660481949655 -0.45955295260085
| 13> C -0.53595737618157 2.03320511871958 -0.46632047856504
| 14> H -1.80799089384276 3.10235586221731 -1.83541040463795
| 15> H -1.77418233935773 1.37575592085383 -2.11299319666902
| 16> C -3.18240100960512 0.60899654774115 0.19290523873046
| 17> H -3.93739900064290 2.18647442629504 -1.04269177596711
| 18> H -3.00021038123697 2.74753601274346 0.32751656531292
| 19> C -0.33096587288753 0.65874252850555 0.17927357636790
| 20> H -0.59381299129876 2.78956411153207 0.32352782608357
| 21> H 0.35813949567343 2.27014319296594 -1.05356974051927
| 22> B -1.74494094921610 0.14560033098904 0.85236897914616
| 23> C 0.75522058889582 0.75829060427854 1.25343648510060
| 24> H 0.45520441292803 1.42693839840778 2.06124286099496
| 25> H 1.67207782759324 1.16104752425311 0.80915123908110
| 26> H 0.97460664828250 -0.21582047872474 1.69377153265420
| 27> C 0.09457444130146 -0.36715884233447 -0.87929033124357
| 28> H -0.67288467294220 -0.54680357911475 -1.62973258695437
| 29> H 0.35374618446137 -1.32526641555613 -0.42558844845704
| 30> H 0.97829008267851 0.01445619523245 -1.40100758437112
| 31> C -4.26073830865529 0.67816945215953 1.27734276126232
| 32> H -3.97217792819478 1.35504177114715 2.08254300289099
| 33> H -4.44883150349149 -0.30149006967966 1.71972280991877
| 34> H -5.19196723387662 1.05564380221334 0.84055174418750
| 35> C -3.58297346238787 -0.43556261576824 -0.85688257027681
| 36> H -2.81900585263367 -0.58531736453156 -1.61772510074728
| 37> H -4.48877479122560 -0.09262129446423 -1.36760516809403
| 38> H -3.79666754536491 -1.40159361044555 -0.39599032332701
| 39> O -1.72542079094809 -0.60961246677337 1.88362858272764
| 40> *
| 41> 
| 42>                          ****END OF INPUT****
================================================================================

                       ****************************
                       * Single Point Calculation *
                       ****************************

---------------------------------
CARTESIAN COORDINATES (ANGSTROEM)
---------------------------------
  C     -1.788329    2.135770   -1.328043
  C     -3.031488    1.986605   -0.459553
  C     -0.535957    2.033205   -0.466320
  H     -1.807991    3.102356   -1.835410
  H     -1.774182    1.375756   -2.112993
  C     -3.182401    0.608997    0.192905
  H     -3.937399    2.186474   -1.042692
  H     -3.000210    2.747536    0.327517
  C     -0.330966    0.658743    0.179274
  H     -0.593813    2.789564    0.323528
  H      0.358139    2.270143   -1.053570
  B     -1.744941    0.145600    0.852369
  C      0.755221    0.758291    1.253436
  H      0.455204    1.426938    2.061243
  H      1.672078    1.161048    0.809151
  H      0.974607   -0.215820    1.693772
  C      0.094574   -0.367159   -0.879290
  H     -0.672885   -0.546804   -1.629733
  H      0.353746   -1.325266   -0.425588
  H      0.978290    0.014456   -1.401008
  C     -4.260738    0.678169    1.277343
  H     -3.972178    1.355042    2.082543
  H     -4.448832   -0.301490    1.719723
  H     -5.191967    1.055644    0.840552
  C     -3.582973   -0.435563   -0.856883
  H     -2.819006   -0.585317   -1.617725
  H     -4.488775   -0.092621   -1.367605
  H     -3.796668   -1.401594   -0.395990
  O     -1.725421   -0.609612    1.883629

----------------------------
CARTESIAN COORDINATES (A.U.)
----------------------------
  NO LB      ZA    FRAG     MASS         X           Y           Z
   0 C     6.0000    0    12.011   -3.379452    4.036021   -2.509637
   1 C     6.0000    0    12.011   -5.728682    3.754139   -0.868429
   2 C     6.0000    0    12.011   -1.012813    3.842201   -0.881218
   3 H     1.0000    0     1.008   -3.416608    5.862603   -3.468423
   4 H     1.0000    0     1.008   -3.352719    2.599802   -3.992978
   5 C     6.0000    0    12.011   -6.013866    1.150837    0.364538
   6 H     1.0000    0     1.008   -7.440606    4.131838   -1.970402
   7 H     1.0000    0     1.008   -5.669576    5.192091    0.618917
   8 C     6.0000    0    12.011   -0.625435    1.244843    0.338778
   9 H     1.0000    0     1.008   -1.122144    5.271512    0.611379
  10 H     1.0000    0     1.008    0.676786    4.289949   -1.990958
  11 B     5.0000    0    10.810   -3.297461    0.275145    1.610744
  12 C     6.0000    0    12.011    1.427160    1.432962    2.368652
  13 H     1.0000    0     1.008    0.860212    2.696523    3.895185
  14 H     1.0000    0     1.008    3.159769    2.194062    1.529074
  15 H     1.0000    0     1.008    1.841740   -0.407842    3.200764
  16 C     6.0000    0    12.011    0.178720   -0.693830   -1.661618
  17 H     1.0000    0     1.008   -1.271568   -1.033309   -3.079748
  18 H     1.0000    0     1.008    0.668483   -2.504391   -0.804246
  19 H     1.0000    0     1.008    1.848700    0.027318   -2.647521
  20 C     6.0000    0    12.011   -8.051629    1.281555    2.413828
  21 H     1.0000    0     1.008   -7.506328    2.560658    3.935436
  22 H     1.0000    0     1.008   -8.407073   -0.569734    3.249805
  23 H     1.0000    0     1.008   -9.811396    1.994878    1.588413
  24 C     6.0000    0    12.011   -6.770839   -0.823094   -1.619273
  25 H     1.0000    0     1.008   -5.327149   -1.106090   -3.057057
  26 H     1.0000    0     1.008   -8.482555   -0.175029   -2.584399
  27 H     1.0000    0     1.008   -7.174662   -2.648628   -0.748313
  28 O     8.0000    0    15.999   -3.260573   -1.152001    3.559542

--------------------------------
INTERNAL COORDINATES (ANGSTROEM)
--------------------------------
 C      0   0   0     0.000000000000     0.00000000     0.00000000
 C      1   0   0     1.523800823679     0.00000000     0.00000000
 C      1   2   0     1.523653110096   109.97683939     0.00000000
 H      1   2   3     1.091831830287   109.68334950   239.26279882
 H      1   2   3     1.092688992018   110.60402675   122.22047967
 C      2   1   3     1.531757487278   114.27954685   294.91767794
 H      2   1   3     1.095752534703   110.69002168   172.70647704
 H      2   1   3     1.095204543389   108.55912320    56.48969325
 C      3   1   2     1.532305652305   114.11854756    65.30291112
 H      3   1   2     1.095119419317   108.54157885   303.76267085
 H      3   1   2     1.095632494477   110.67490901   187.49258264
 B      9   3   1     1.647937454090   109.67046106   313.43039752
 C      9   3   1     1.530861458019   109.40364817   192.66807981
 H     13   9   3     1.090711107201   111.36904116    63.22436378
 H     13   9   3     1.095549958957   109.46005315   304.15869654
 H     13   9   3     1.091291711316   111.57491703   183.58032590
 C      9   3   1     1.534312786947   110.25412824    72.41609904
 H     17   9   3     1.088314891309   112.98714785   295.51255251
 H     17   9   3     1.091322827014   111.47273610   173.65475419
 H     17   9   3     1.094884589316   108.63635052    54.51418113
 C      6   2   1     1.530882412697   109.29884966   166.94119544
 H     21   6   2     1.090766087895   111.38383241   296.36121723
 H     21   6   2     1.091243298318   111.59334120   176.00031315
 H     21   6   2     1.095655323865   109.38105977    55.39763309
 C      6   2   1     1.534150116495   110.27978366   287.20105243
 H     25   6   2     1.088556084776   112.87341952    64.07389060
 H     25   6   2     1.094953135574   108.77902283   305.08324932
 H     25   6   2     1.091468142950   111.39485563   185.91476334
 O     12   9   3     1.278367621798   120.02298132   210.37167960

---------------------------
INTERNAL COORDINATES (A.U.)
---------------------------
 C      0   0   0     0.000000000000     0.00000000     0.00000000
 C      1   0   0     2.879566239398     0.00000000     0.00000000
 C      1   2   0     2.879287101179   109.97683939     0.00000000
 H      1   2   3     2.063263143541   109.68334950   239.26279882
 H      1   2   3     2.064882944465   110.60402675   122.22047967
 C      2   1   3     2.894602154539   114.27954685   294.91767794
 H      2   1   3     2.070672201138   110.69002168   172.70647704
 H      2   1   3     2.069636647632   108.55912320    56.48969325
 C      3   1   2     2.895638036316   114.11854756    65.30291112
 H      3   1   2     2.069475786448   108.54157885   303.76267085
 H      3   1   2     2.070445357987   110.67490901   187.49258264
 B      9   3   1     3.114150474061   109.67046106   313.43039752
 C      9   3   1     2.892908904632   109.40364817   192.66807981
 H     13   9   3     2.061145283836   111.36904116    63.22436378
 H     13   9   3     2.070289388457   109.46005315   304.15869654
 H     13   9   3     2.062242466606   111.57491703   183.58032590
 C      9   3   1     2.899430971103   110.25412824    72.41609904
 H     17   9   3     2.056617092042   112.98714785   295.51255251
 H     17   9   3     2.062301266753   111.47273610   173.65475419
 H     17   9   3     2.069032022059   108.63635052    54.51418113
 C      6   2   1     2.892948503233   109.29884966   166.94119544
 H     21   6   2     2.061249182290   111.38383241   296.36121723
 H     21   6   2     2.062150979297   111.59334120   176.00031315
 H     21   6   2     2.070488499278   109.38105977    55.39763309
 C      6   2   1     2.899123568498   110.27978366   287.20105243
 H     25   6   2     2.057072881641   112.87341952    64.07389060
 H     25   6   2     2.069161555713   108.77902283   305.08324932
 H     25   6   2     2.062575874075   111.39485563   185.91476334
 O     12   9   3     2.415764703671   120.02298132   210.37167960

---------------------
BASIS SET INFORMATION
---------------------
There are 4 groups of distinct atoms

 Group   1 Type C   : 17s7p3d2f contracted to 5s4p3d2f pattern {77111/4111/111/11}
 Group   2 Type H   : 7s3p2d contracted to 4s3p2d pattern {4111/111/11}
 Group   3 Type B   : 17s7p3d2f contracted to 5s4p3d2f pattern {77111/4111/111/11}
 Group   4 Type O   : 17s7p3d2f contracted to 5s4p3d2f pattern {77111/4111/111/11}

Atom   0C    basis set group =>   1
Atom   1C    basis set group =>   1
Atom   2C    basis set group =>   1
Atom   3H    basis set group =>   2
Atom   4H    basis set group =>   2
Atom   5C    basis set group =>   1
Atom   6H    basis set group =>   2
Atom   7H    basis set group =>   2
Atom   8C    basis set group =>   1
Atom   9H    basis set group =>   2
Atom  10H    basis set group =>   2
Atom  11B    basis set group =>   3
Atom  12C    basis set group =>   1
Atom  13H    basis set group =>   2
Atom  14H    basis set group =>   2
Atom  15H    basis set group =>   2
Atom  16C    basis set group =>   1
Atom  17H    basis set group =>   2
Atom  18H    basis set group =>   2
Atom  19H    basis set group =>   2
Atom  20C    basis set group =>   1
Atom  21H    basis set group =>   2
Atom  22H    basis set group =>   2
Atom  23H    basis set group =>   2
Atom  24C    basis set group =>   1
Atom  25H    basis set group =>   2
Atom  26H    basis set group =>   2
Atom  27H    basis set group =>   2
Atom  28O    basis set group =>   4
---------------------------------
AUXILIARY/J BASIS SET INFORMATION
---------------------------------
There are 4 groups of distinct atoms

 Group   1 Type C   : 12s5p4d2f1g contracted to 6s4p3d1f1g pattern {711111/2111/211/2/1}
 Group   2 Type H   : 5s2p1d contracted to 3s1p1d pattern {311/2/1}
 Group   3 Type B   : 12s5p4d2f1g contracted to 6s4p3d1f1g pattern {711111/2111/211/2/1}
 Group   4 Type O   : 12s5p4d2f1g contracted to 6s4p3d1f1g pattern {711111/2111/211/2/1}

Atom   0C    basis set group =>   1
Atom   1C    basis set group =>   1
Atom   2C    basis set group =>   1
Atom   3H    basis set group =>   2
Atom   4H    basis set group =>   2
Atom   5C    basis set group =>   1
Atom   6H    basis set group =>   2
Atom   7H    basis set group =>   2
Atom   8C    basis set group =>   1
Atom   9H    basis set group =>   2
Atom  10H    basis set group =>   2
Atom  11B    basis set group =>   3
Atom  12C    basis set group =>   1
Atom  13H    basis set group =>   2
Atom  14H    basis set group =>   2
Atom  15H    basis set group =>   2
Atom  16C    basis set group =>   1
Atom  17H    basis set group =>   2
Atom  18H    basis set group =>   2
Atom  19H    basis set group =>   2
Atom  20C    basis set group =>   1
Atom  21H    basis set group =>   2
Atom  22H    basis set group =>   2
Atom  23H    basis set group =>   2
Atom  24C    basis set group =>   1
Atom  25H    basis set group =>   2
Atom  26H    basis set group =>   2
Atom  27H    basis set group =>   2
Atom  28O    basis set group =>   4


           ************************************************************
           *        Program running with 20 parallel MPI-processes    *
           *              working on a common directory               *
           ************************************************************
------------------------------------------------------------------------------
                           ORCA GTO INTEGRAL CALCULATION
                           -- RI-GTO INTEGRALS CHOSEN --
------------------------------------------------------------------------------

                         BASIS SET STATISTICS AND STARTUP INFO

Gaussian basis set:
 # of primitive gaussian shells          ...  535
 # of primitive gaussian functions       ... 1205
 # of contracted shells                  ...  316
 # of contracted basis functions         ...  920
 Highest angular momentum                ...    3
 Maximum contraction depth               ...    7
Auxiliary gaussian basis set:
 # of primitive gaussian shells          ...  408
 # of primitive gaussian functions       ... 1058
 # of contracted shells                  ...  255
 # of contracted aux-basis functions     ...  737
 Highest angular momentum                ...    4
 Maximum contraction depth               ...    7
Ratio of auxiliary to basis functions    ...  0.80
Integral package used                  ... LIBINT
 One Electron integrals                  ... done
 Ordering auxiliary basis shells         ... done
 Integral threshhold             Thresh  ...  2.500e-11
 Primitive cut-off               TCut    ...  2.500e-12
 Pre-screening matrix                    ... done
 Shell pair data                         ... 
 Ordering of the shell pairs             ... done (   0.010 sec) 47557 of 50086 pairs
 Determination of significant pairs      ... done (   0.000 sec)
 Creation of shell pair data             ... done (   0.008 sec)
 Storage of shell pair data              ... done (   0.030 sec)
 Shell pair data done in (   0.049 sec)
 Computing two index integrals           ... done
 Cholesky decomposition of the V-matrix  ... done


Timings:
 Total evaluation time                   ...   1.428 sec (  0.024 min)
 One electron matrix time                ...   0.488 sec (  0.008 min) = 34.2%
 Schwartz matrix evaluation time         ...   0.826 sec (  0.014 min) = 57.8%
 Two index repulsion integral time       ...   0.018 sec (  0.000 min) =  1.3%
 Cholesky decomposition of V             ...   0.026 sec (  0.000 min) =  1.8%
 Three index repulsion integral time     ...   0.000 sec (  0.000 min) =  0.0%



           ************************************************************
           *        Program running with 20 parallel MPI-processes    *
           *              working on a common directory               *
           ************************************************************
-------------------------------------------------------------------------------
                                 ORCA SCF
-------------------------------------------------------------------------------

------------
SCF SETTINGS
------------
Hamiltonian:
 Density Functional     Method          .... DFT(GTOs)
 Exchange Functional    Exchange        .... WB97X-V
 Correlation Functional Correlation     .... WB97X-V
 Gradients option       PostSCFGGA      .... off
 Hybrid DFT is turned on
   Fraction HF Exchange ScalHFX         ....  0.167000
   Scaling of DF-GGA-X  ScalDFX         ....  0.000000
   Scaling of DF-GGA-C  ScalDFC         ....  1.000000
   Scaling of DF-LDA-C  ScalLDAC        ....  1.000000
   Perturbative correction              ....  0.000000
   Density functional embedding theory  .... OFF
 Long-range corrected/Screened/Range-Separated Hybrid DFT is turned on
   Amount of maximum screened exact exchange              ....  0.833000
   Range separation parameter mu (erf(mu*r12)/r12)        ....  0.300000
 RI-approximation to the Coulomb term is turned on
   Number of auxiliary basis functions  .... 737
   RIJ-COSX (HFX calculated with COS-X)).... on


General Settings:
 Integral files         IntName         .... boron_0_2
 Hartree-Fock type      HFTyp           .... UHF
 Total Charge           Charge          ....    0
 Multiplicity           Mult            ....    2
 Number of Electrons    NEL             ....   85
 Basis Dimension        Dim             ....  920
 Nuclear Repulsion      ENuc            ....    662.2741613450 Eh

Convergence Acceleration:
 DIIS                   CNVDIIS         .... on
   Start iteration      DIISMaxIt       ....    12
   Startup error        DIISStart       ....  0.200000
   # of expansion vecs  DIISMaxEq       ....     5
   Bias factor          DIISBfac        ....   1.050
   Max. coefficient     DIISMaxC        ....  10.000
 Newton-Raphson         CNVNR           .... off
 SOSCF                  CNVSOSCF        .... off
 Level Shifting         CNVShift        .... on
   Level shift para.    LevelShift      ....    0.2500
   Turn off err/grad.   ShiftErr        ....    0.0010
 Zerner damping         CNVZerner       .... off
 Static damping         CNVDamp         .... on
   Fraction old density DampFac         ....    0.7000
   Max. Damping (<1)    DampMax         ....    0.9800
   Min. Damping (>=0)   DampMin         ....    0.0000
   Turn off err/grad.   DampErr         ....    0.1000
 Fernandez-Rico         CNVRico         .... off

SCF Procedure:
 Maximum # iterations   MaxIter         ....   125
 SCF integral mode      SCFMode         .... Direct
   Integral package                     .... LIBINT
 Reset frequency        DirectResetFreq ....     1
 Integral Threshold     Thresh          ....  2.500e-11 Eh
 Primitive CutOff       TCut            ....  2.500e-12 Eh

Convergence Tolerance:
 Convergence Check Mode ConvCheckMode   .... Total+1el-Energy
 Convergence forced     ConvForced      .... 0
 Energy Change          TolE            ....  1.000e-08 Eh
 1-El. energy change                    ....  1.000e-05 Eh
 DIIS Error             TolErr          ....  5.000e-07


Diagonalization of the overlap matrix:
Smallest eigenvalue                        ... 4.693e-08
Time for diagonalization                   ...    0.213 sec
Threshold for overlap eigenvalues          ... 1.000e-08
Number of eigenvalues below threshold      ... 0
Time for construction of square roots      ...    0.127 sec
Total time needed                          ...    0.343 sec

---------------------
INITIAL GUESS: MOREAD
---------------------
Guess MOs are being read from file: /cluster/home/ambr/projects/marius_tests_application/vacuum/boron_0_2.gbw
Input Geometry matches current geometry (good)
Input basis set matches current basis set (good)
MOs were renormalized
MOs were reorthogonalized (Cholesky)
                      ------------------
                      INITIAL GUESS DONE (   0.9 sec)
                      ------------------
-------------------
DFT GRID GENERATION
-------------------

General Integration Accuracy     IntAcc      ...  5.010
Radial Grid Type                 RadialGrid  ... Gauss-Chebyshev
Angular Grid (max. acc.)         AngularGrid ... Lebedev-434
Angular grid pruning method      GridPruning ... 3 (G Style)
Weight generation scheme         WeightScheme... Becke
Basis function cutoff            BFCut       ...    1.0000e-11
Integration weight cutoff        WCut        ...    1.0000e-14
Grids for H and He will be reduced by one unit

# of grid points (after initial pruning)     ... 238170 (   0.0 sec)
# of grid points (after weights+screening)   ... 206545 (   0.1 sec)
nearest neighbour list constructed           ...    0.0 sec
Grid point re-assignment to atoms done       ...    0.1 sec
Grid point division into batches done        ...    1.4 sec
Reduced shell lists constructed in    1.8 sec

Total number of grid points                  ...   206545
Total number of batches                      ...     3242
Average number of points per batch           ...       63
Average number of grid points per atom       ...     7122
Average number of shells per batch           ...   254.35 (80.49%)
Average number of basis functions per batch  ...   729.48 (79.29%)
Average number of large shells per batch     ...   214.79 (84.45%)
Average number of large basis fcns per batch ...   615.99 (84.44%)
Maximum spatial batch extension              ...   2.13,  1.77,  1.99 au
Average spatial batch extension              ...   0.04,  0.04,  0.04 au

Time for grid setup =    1.996 sec

--------------------
COSX GRID GENERATION
--------------------

General Integration Accuracy     IntAcc      ...  3.340
Radial Grid Type                 RadialGrid  ... Gauss-Chebyshev
Angular Grid (max. acc.)         AngularGrid ... Lebedev-50
Angular grid pruning method      GridPruning ... 3 (G Style)
Weight generation scheme         WeightScheme... Becke
Basis function cutoff            BFCut       ...    1.0000e-11
Integration weight cutoff        WCut        ...    1.0000e-14
Grids for H and He will be reduced by one unit

# of grid points (after initial pruning)     ...  12126 (   0.0 sec)
# of grid points (after weights+screening)   ...  10813 (   0.0 sec)
nearest neighbour list constructed           ...    0.0 sec
Grid point re-assignment to atoms done       ...    0.0 sec
Grid point division into batches done        ...    0.0 sec
Reduced shell lists constructed in    0.0 sec

Total number of grid points                  ...    10813
Total number of batches                      ...      183
Average number of points per batch           ...       59
Average number of grid points per atom       ...      373
Average number of shells per batch           ...   246.27 (77.93%)
Average number of basis functions per batch  ...   712.09 (77.40%)
Average number of large shells per batch     ...   210.18 (85.35%)
Average number of large basis fcns per batch ...   602.73 (84.64%)
Maximum spatial batch extension              ...   3.03,  3.63,  2.28 au
Average spatial batch extension              ...   0.12,  0.11,  0.09 au

Overlap Fitting                  UseSFitting ... on
Constructing numerical overlap ... done (      0.1 sec)
Inverting numerical overlap    ... done (      0.0 sec)
Obtaining analytic overlap     ... done (      0.0 sec)
Final contraction and storage  ... done (      0.1 sec)


General Integration Accuracy     IntAcc      ...  3.670
Radial Grid Type                 RadialGrid  ... Gauss-Chebyshev
Angular Grid (max. acc.)         AngularGrid ... Lebedev-50
Angular grid pruning method      GridPruning ... 3 (G Style)
Weight generation scheme         WeightScheme... Becke
Basis function cutoff            BFCut       ...    1.0000e-11
Integration weight cutoff        WCut        ...    1.0000e-14
Grids for H and He will be reduced by one unit

# of grid points (after initial pruning)     ...  15662 (   0.0 sec)
# of grid points (after weights+screening)   ...  13938 (   0.0 sec)
nearest neighbour list constructed           ...    0.0 sec
Grid point re-assignment to atoms done       ...    0.0 sec
Grid point division into batches done        ...    0.0 sec
Reduced shell lists constructed in    0.0 sec

Total number of grid points                  ...    13938
Total number of batches                      ...      232
Average number of points per batch           ...       60
Average number of grid points per atom       ...      481
Average number of shells per batch           ...   249.38 (78.92%)
Average number of basis functions per batch  ...   721.69 (78.44%)
Average number of large shells per batch     ...   212.23 (85.10%)
Average number of large basis fcns per batch ...   609.31 (84.43%)
Maximum spatial batch extension              ...   2.95,  3.58,  2.67 au
Average spatial batch extension              ...   0.10,  0.11,  0.09 au

Overlap Fitting                  UseSFitting ... on
Constructing numerical overlap ... done (      0.1 sec)
Inverting numerical overlap    ... done (      0.0 sec)
Obtaining analytic overlap     ... done (      0.0 sec)
Final contraction and storage  ... done (      0.1 sec)


General Integration Accuracy     IntAcc      ...  4.010
Radial Grid Type                 RadialGrid  ... Gauss-Chebyshev
Angular Grid (max. acc.)         AngularGrid ... Lebedev-110
Angular grid pruning method      GridPruning ... 3 (G Style)
Weight generation scheme         WeightScheme... Becke
Basis function cutoff            BFCut       ...    1.0000e-11
Integration weight cutoff        WCut        ...    1.0000e-14
Grids for H and He will be reduced by one unit

# of grid points (after initial pruning)     ...  28066 (   0.0 sec)
# of grid points (after weights+screening)   ...  24971 (   0.0 sec)
nearest neighbour list constructed           ...    0.0 sec
Grid point re-assignment to atoms done       ...    0.0 sec
Grid point division into batches done        ...    0.0 sec
Reduced shell lists constructed in    0.1 sec

Total number of grid points                  ...    24971
Total number of batches                      ...      403
Average number of points per batch           ...       61
Average number of grid points per atom       ...      861
Average number of shells per batch           ...   252.36 (79.86%)
Average number of basis functions per batch  ...   727.64 (79.09%)
Average number of large shells per batch     ...   214.23 (84.89%)
Average number of large basis fcns per batch ...   616.14 (84.68%)
Maximum spatial batch extension              ...   1.96,  2.12,  2.46 au
Average spatial batch extension              ...   0.08,  0.08,  0.08 au

Overlap Fitting                  UseSFitting ... on
Constructing numerical overlap ... done (      0.1 sec)
Inverting numerical overlap    ... done (      0.0 sec)
Obtaining analytic overlap     ... done (      0.0 sec)
Final contraction and storage  ... done (      0.1 sec)

Time for X-Grid setup             =    0.913 sec

--------------------
CPCM SOLVATION MODEL
--------------------
CPCM parameters:
  Epsilon                                         ...      36.6000
  Refrac                                          ...       1.3440
  Rsolv                                           ...       1.3000
  Surface type                                    ...    GEPOL SES
  Epsilon function type                           ...         CPCM
Radii:
 Radius for C  used is    3.7795 Bohr (=   2.0000 Ang.)
 Radius for H  used is    2.4566 Bohr (=   1.3000 Ang.)
 Radius for B  used is    3.8692 Bohr (=   2.0475 Ang.)
 Radius for O  used is    3.2503 Bohr (=   1.7200 Ang.)
Calculating surface                               ...        done! (  0.2s)
GEPOL surface points                              ...          954
GEPOL Volume                                      ...    1453.4958
GEPOL Surface-area                                ...     727.1689
Calculating surface distance matrix               ...        done! (  0.0s)
Performing Cholesky decomposition & store         ...        done! (  0.0s)
Overall time for CPCM initialization              ...                 0.2s
--------------
SCF ITERATIONS
--------------
ITER       Energy         Delta-E        Max-DP      RMS-DP      [F,P]     Damp
  0   -454.2633337002   0.000000000000 0.14723822  0.00079758  0.0098249 0.7000
  1   -454.2653848273  -0.002051127081 2.56581482  0.00772712  0.0071943 0.7000
                               ***Turning on DIIS***
  2   -454.2656522709  -0.000267443589 6.95809898  0.02048337  0.0050777 0.0000
  3   -454.2664477008  -0.000795429950 0.40780291  0.00158283  0.0052227 0.0000
  4   -454.2665740925  -0.000126391694 0.09782772  0.00048165  0.0035879 0.0000
  5   -454.2666561926  -0.000082100072 0.04294156  0.00021264  0.0021193 0.0000
  6   -454.2667113937  -0.000055201093 0.06206511  0.00022771  0.0013893 0.0000
  7   -454.2667563747  -0.000044981056 0.03518754  0.00027315  0.0009732 0.0000
  8   -454.2646864008   0.002069973960 0.64553209  0.00178187  0.0021949 0.0000
  9   -454.2647198527  -0.000033451917 0.05442016  0.00015468  0.0020771 0.0000
 10   -454.2647220515  -0.000002198869 0.05877584  0.00016972  0.0020739 0.0000
 11   -454.2647243580  -0.000002306463 0.05923980  0.00018105  0.0020650 0.0000
 12   -454.2647160228   0.000008335207 8.61721771  0.02488247  0.0020530 0.0000
 13   -454.2650143075  -0.000298284681 0.76562389  0.00338192  0.0008412 0.0000
 14   -454.2650213507  -0.000007043209 0.03059098  0.00014709  0.0012251 0.0000
 15   -454.2650237109  -0.000002360201 0.03587180  0.00018762  0.0005751 0.0000
 16   -454.2650274052  -0.000003694346 0.01275232  0.00008331  0.0003931 0.0000
 17   -454.2650304208  -0.000003015566 0.01079477  0.00005545  0.0001569 0.0000
 18   -454.2650310436  -0.000000622749 0.00363699  0.00002148  0.0000861 0.0000
 19   -454.2650311240  -0.000000080430 0.00080653  0.00000679  0.0000062 0.0000
 20   -454.2650311302  -0.000000006219 0.00012652  0.00000088  0.0000032 0.0000
                            ***DIIS convergence achieved***

               *****************************************************
               *                     SUCCESS                       *
               *           SCF CONVERGED AFTER  21 CYCLES          *
               *****************************************************

Setting up the final grid:

General Integration Accuracy     IntAcc      ...  5.340
Radial Grid Type                 RadialGrid  ... Gauss-Chebyshev
Angular Grid (max. acc.)         AngularGrid ... Lebedev-590
Angular grid pruning method      GridPruning ... 3 (G Style)
Weight generation scheme         WeightScheme... Becke
Basis function cutoff            BFCut       ...    1.0000e-11
Integration weight cutoff        WCut        ...    1.0000e-14
Grids for H and He will be reduced by one unit

# of grid points (after initial pruning)     ... 380204 (   0.0 sec)
# of grid points (after weights+screening)   ... 327476 (   0.2 sec)
nearest neighbour list constructed           ...    0.0 sec
Grid point re-assignment to atoms done       ...    0.1 sec
Grid point division into batches done        ...    3.6 sec
Reduced shell lists constructed in    4.2 sec

Total number of grid points                  ...   327476
Total number of batches                      ...     5132
Average number of points per batch           ...       63
Average number of grid points per atom       ...    11292
Average number of shells per batch           ...   253.60 (80.25%)
Average number of basis functions per batch  ...   726.56 (78.97%)
Average number of large shells per batch     ...   213.74 (84.28%)
Average number of large basis fcns per batch ...   612.13 (84.25%)
Maximum spatial batch extension              ...   1.50,  1.45,  1.60 au
Average spatial batch extension              ...   0.03,  0.03,  0.03 au

Final grid set up in    4.5 sec
Final integration                            ... done (   8.7 sec)
Change in XC energy                          ...     0.000069466
Integrated number of electrons               ...    84.999940593
Previous integrated no of electrons          ...    85.000037250
Old exchange energy                            =    -21.932437415 Eh
New exchange energy                            =    -21.932393980 Eh
Exchange energy change after final integration =      0.000043435 Eh
Total energy after final integration           =   -454.264918229 Eh
Final COS-X integration done in                =    22.019 sec

----------------
TOTAL SCF ENERGY
----------------

Total Energy       :         -454.26491823 Eh          -12361.17686 eV

Components:
Nuclear Repulsion  :          662.27416134 Eh           18021.39612 eV
Electronic Energy  :        -1116.53907957 Eh          -30382.57298 eV
One Electron Energy:        -1926.84736921 Eh          -52432.18252 eV
Two Electron Energy:          810.30828963 Eh           22049.60954 eV
CPCM Dielectric    :           -0.01040303 Eh              -0.28308 eV

Virial components:
Potential Energy   :         -906.29966822 Eh          -24661.66775 eV
Kinetic Energy     :          452.03474999 Eh           12300.49089 eV
Virial Ratio       :            2.00493362


DFT components:
N(Alpha)           :       42.999970117643 electrons
N(Beta)            :       41.999970475391 electrons
N(Total)           :       84.999940593035 electrons
E(X)               :      -43.215935194498 Eh       
E(C)               :       -3.426077958639 Eh       
E(XC)              :      -46.642013153138 Eh       
DFET-embed. en.    :        0.000000000000 Eh       
CPCM Solvation Model Properties:
Surface-charge          :           -0.03768077
Charge-correction       :           -0.00032307 Eh              -0.00879 eV
Free-energy (cav+disp)  :            0.00430006 Eh               0.11701 eV
Corrected G(solv)       :         -454.26094124 Eh          -12361.06864 eV

---------------
SCF CONVERGENCE
---------------

  Last Energy change         ...   -2.3971e-10  Tolerance :   1.0000e-08
  Last MAX-Density change    ...    0.0000e+00  Tolerance :   1.0000e-07
  Last RMS-Density change    ...    0.0000e+00  Tolerance :   5.0000e-09
  Last DIIS Error            ...    5.1734e-07  Tolerance :   5.0000e-07

================================================================================
                                        WARNING
Check your MOs and check whether a frozen core calculation is appropriate
MO 10 should be a B  s core orbital but seems to be delocalized with a C  p orbital (89.7% vs.  4.7%)
================================================================================
================================================================================
                                        WARNING
Check your MOs and check whether a frozen core calculation is appropriate
MO 10 should be a B  s core orbital but seems to be delocalized with a C  p orbital (89.6% vs.  4.7%)
================================================================================
             **** THE GBW FILE WAS UPDATED (boron_0_2.gbw) ****
             **** DENSITY FILE WAS UPDATED (boron_0_2.scfp) ****
             **** ENERGY FILE WAS UPDATED (boron_0_2.en.tmp) ****
----------------------
UHF SPIN CONTAMINATION
----------------------

Warning: in a DFT calculation there is little theoretical justification to 
         calculate <S**2> as in Hartree-Fock theory. We will do it anyways
         but you should keep in mind that the values have only limited relevance

Expectation value of <S**2>     :     0.758888
Ideal value S*(S+1) for S=0.5   :     0.750000
Deviation                       :     0.008888

             **** THE GBW FILE WAS UPDATED (boron_0_2.gbw) ****
             **** DENSITY FILE WAS UPDATED (boron_0_2.scfp) ****
----------------
ORBITAL ENERGIES
----------------
                 SPIN UP ORBITALS
  NO   OCC          E(Eh)            E(eV) 
   0   1.0000     -19.227511      -523.2072 
   1   1.0000     -10.290071      -280.0071 
   2   1.0000     -10.289953      -280.0039 
   3   1.0000     -10.264416      -279.3090 
   4   1.0000     -10.264375      -279.3078 
   5   1.0000     -10.262402      -279.2541 
   6   1.0000     -10.262337      -279.2524 
   7   1.0000     -10.262153      -279.2474 
   8   1.0000     -10.257968      -279.1335 
   9   1.0000     -10.257876      -279.1310 
  10   1.0000      -6.847145      -186.3203 
  11   1.0000      -1.120968       -30.5031 
  12   1.0000      -0.974140       -26.5077 
  13   1.0000      -0.941533       -25.6204 
  14   1.0000      -0.885495       -24.0955 
  15   1.0000      -0.820752       -22.3338 
  16   1.0000      -0.814489       -22.1634 
  17   1.0000      -0.804233       -21.8843 
  18   1.0000      -0.742601       -20.2072 
  19   1.0000      -0.685844       -18.6628 
  20   1.0000      -0.674380       -18.3508 
  21   1.0000      -0.609880       -16.5957 
  22   1.0000      -0.583413       -15.8755 
  23   1.0000      -0.578903       -15.7527 
  24   1.0000      -0.551258       -15.0005 
  25   1.0000      -0.550175       -14.9710 
  26   1.0000      -0.535043       -14.5593 
  27   1.0000      -0.533616       -14.5204 
  28   1.0000      -0.523492       -14.2449 
  29   1.0000      -0.503889       -13.7115 
  30   1.0000      -0.500362       -13.6156 
  31   1.0000      -0.491039       -13.3618 
  32   1.0000      -0.475070       -12.9273 
  33   1.0000      -0.469486       -12.7754 
  34   1.0000      -0.466950       -12.7063 
  35   1.0000      -0.457445       -12.4477 
  36   1.0000      -0.449036       -12.2189 
  37   1.0000      -0.442646       -12.0450 
  38   1.0000      -0.430579       -11.7167 
  39   1.0000      -0.425582       -11.5807 
  40   1.0000      -0.418517       -11.3884 
  41   1.0000      -0.399730       -10.8772 
  42   1.0000      -0.348697        -9.4885 
  43   0.0000       0.022087         0.6010 
  44   0.0000       0.027992         0.7617 
  45   0.0000       0.028224         0.7680 
  46   0.0000       0.029566         0.8045 
  47   0.0000       0.040207         1.0941 
  48   0.0000       0.040393         1.0992 
  49   0.0000       0.040560         1.1037 
  50   0.0000       0.043701         1.1892 
  51   0.0000       0.044278         1.2049 
  52   0.0000       0.055585         1.5125 
  53   0.0000       0.058209         1.5840 
  54   0.0000       0.059331         1.6145 
  55   0.0000       0.059863         1.6289 
  56   0.0000       0.060401         1.6436 
  57   0.0000       0.063251         1.7212 
  58   0.0000       0.067576         1.8388 
  59   0.0000       0.073532         2.0009 
  60   0.0000       0.079618         2.1665 
  61   0.0000       0.081323         2.2129 
  62   0.0000       0.081613         2.2208 
  63   0.0000       0.082922         2.2564 
  64   0.0000       0.083654         2.2763 
  65   0.0000       0.085137         2.3167 
  66   0.0000       0.088917         2.4195 
  67   0.0000       0.090682         2.4676 
  68   0.0000       0.097687         2.6582 
  69   0.0000       0.100284         2.7289 
  70   0.0000       0.102393         2.7863 
  71   0.0000       0.103884         2.8268 
  72   0.0000       0.104395         2.8407 
  73   0.0000       0.105181         2.8621 
  74   0.0000       0.108010         2.9391 
  75   0.0000       0.109332         2.9751 
  76   0.0000       0.113312         3.0834 
  77   0.0000       0.113888         3.0990 
  78   0.0000       0.118773         3.2320 
  79   0.0000       0.121601         3.3089 
  80   0.0000       0.123109         3.3500 
  81   0.0000       0.124062         3.3759 
  82   0.0000       0.125716         3.4209 
  83   0.0000       0.127557         3.4710 
  84   0.0000       0.131578         3.5804 
  85   0.0000       0.133359         3.6289 
  86   0.0000       0.136572         3.7163 
  87   0.0000       0.137747         3.7483 
  88   0.0000       0.139619         3.7992 
  89   0.0000       0.143472         3.9041 
  90   0.0000       0.144860         3.9418 
  91   0.0000       0.146974         3.9994 
  92   0.0000       0.148574         4.0429 
  93   0.0000       0.156435         4.2568 
  94   0.0000       0.161311         4.3895 
  95   0.0000       0.164446         4.4748 
  96   0.0000       0.169105         4.6016 
  97   0.0000       0.169461         4.6113 
  98   0.0000       0.173694         4.7265 
  99   0.0000       0.175098         4.7647 
 100   0.0000       0.177631         4.8336 
 101   0.0000       0.188051         5.1171 
 102   0.0000       0.189599         5.1592 
 103   0.0000       0.190841         5.1931 
 104   0.0000       0.193776         5.2729 
 105   0.0000       0.198309         5.3963 
 106   0.0000       0.198523         5.4021 
 107   0.0000       0.199943         5.4407 
 108   0.0000       0.206612         5.6222 
 109   0.0000       0.207605         5.6492 
 110   0.0000       0.210085         5.7167 
 111   0.0000       0.211761         5.7623 
 112   0.0000       0.214548         5.8381 
 113   0.0000       0.216458         5.8901 
 114   0.0000       0.220305         5.9948 
 115   0.0000       0.222781         6.0622 
 116   0.0000       0.223041         6.0693 
 117   0.0000       0.227335         6.1861 
 118   0.0000       0.230770         6.2796 
 119   0.0000       0.234216         6.3733 
 120   0.0000       0.234411         6.3787 
 121   0.0000       0.237074         6.4511 
 122   0.0000       0.239033         6.5044 
 123   0.0000       0.243150         6.6165 
 124   0.0000       0.247999         6.7484 
 125   0.0000       0.250002         6.8029 
 126   0.0000       0.250923         6.8279 
 127   0.0000       0.251287         6.8379 
 128   0.0000       0.257465         7.0060 
 129   0.0000       0.259520         7.0619 
 130   0.0000       0.262270         7.1367 
 131   0.0000       0.265554         7.2261 
 132   0.0000       0.265719         7.2306 
 133   0.0000       0.267643         7.2829 
 134   0.0000       0.273665         7.4468 
 135   0.0000       0.274325         7.4648 
 136   0.0000       0.276726         7.5301 
 137   0.0000       0.277186         7.5426 
 138   0.0000       0.280628         7.6363 
 139   0.0000       0.281300         7.6546 
 140   0.0000       0.285884         7.7793 
 141   0.0000       0.286340         7.7917 
 142   0.0000       0.289303         7.8723 
 143   0.0000       0.290525         7.9056 
 144   0.0000       0.293597         7.9892 
 145   0.0000       0.299565         8.1516 
 146   0.0000       0.303365         8.2550 
 147   0.0000       0.305741         8.3196 
 148   0.0000       0.308037         8.3821 
 149   0.0000       0.309474         8.4212 
 150   0.0000       0.311525         8.4770 
 151   0.0000       0.312800         8.5117 
 152   0.0000       0.314826         8.5669 
 153   0.0000       0.315455         8.5840 
 154   0.0000       0.319470         8.6932 
 155   0.0000       0.321149         8.7389 
 156   0.0000       0.322995         8.7891 
 157   0.0000       0.323994         8.8163 
 158   0.0000       0.325488         8.8570 
 159   0.0000       0.330359         8.9895 
 160   0.0000       0.331109         9.0099 
 161   0.0000       0.333862         9.0849 
 162   0.0000       0.335979         9.1425 
 163   0.0000       0.336852         9.1662 
 164   0.0000       0.341358         9.2888 
 165   0.0000       0.341887         9.3032 
 166   0.0000       0.344472         9.3736 
 167   0.0000       0.347197         9.4477 
 168   0.0000       0.349212         9.5025 
 169   0.0000       0.349605         9.5132 
 170   0.0000       0.350854         9.5472 
 171   0.0000       0.351406         9.5622 
 172   0.0000       0.353030         9.6064 
 173   0.0000       0.358923         9.7668 
 174   0.0000       0.358993         9.7687 
 175   0.0000       0.364052         9.9064 
 176   0.0000       0.365454         9.9445 
 177   0.0000       0.365583         9.9480 
 178   0.0000       0.371757        10.1160 
 179   0.0000       0.375617        10.2211 
 180   0.0000       0.376484        10.2447 
 181   0.0000       0.380990        10.3673 
 182   0.0000       0.381516        10.3816 
 183   0.0000       0.383145        10.4259 
 184   0.0000       0.386297        10.5117 
 185   0.0000       0.388936        10.5835 
 186   0.0000       0.390871        10.6361 
 187   0.0000       0.394085        10.7236 
 188   0.0000       0.397095        10.8055 
 189   0.0000       0.399021        10.8579 
 190   0.0000       0.404130        10.9969 
 191   0.0000       0.409816        11.1517 
 192   0.0000       0.413038        11.2393 
 193   0.0000       0.414798        11.2872 
 194   0.0000       0.423328        11.5193 
 195   0.0000       0.423486        11.5236 
 196   0.0000       0.427937        11.6448 
 197   0.0000       0.430432        11.7126 
 198   0.0000       0.435664        11.8550 
 199   0.0000       0.440469        11.9858 
 200   0.0000       0.441906        12.0249 
 201   0.0000       0.443993        12.0817 
 202   0.0000       0.445785        12.1304 
 203   0.0000       0.447568        12.1789 
 204   0.0000       0.450725        12.2648 
 205   0.0000       0.452219        12.3055 
 206   0.0000       0.456852        12.4316 
 207   0.0000       0.457560        12.4509 
 208   0.0000       0.462238        12.5781 
 209   0.0000       0.467167        12.7123 
 210   0.0000       0.470002        12.7894 
 211   0.0000       0.474951        12.9241 
 212   0.0000       0.476603        12.9690 
 213   0.0000       0.477111        12.9828 
 214   0.0000       0.477981        13.0065 
 215   0.0000       0.479700        13.0533 
 216   0.0000       0.485720        13.2171 
 217   0.0000       0.490525        13.3479 
 218   0.0000       0.494272        13.4498 
 219   0.0000       0.494638        13.4598 
 220   0.0000       0.500383        13.6161 
 221   0.0000       0.502306        13.6685 
 222   0.0000       0.506091        13.7714 
 223   0.0000       0.507216        13.8021 
 224   0.0000       0.511124        13.9084 
 225   0.0000       0.511582        13.9208 
 226   0.0000       0.521508        14.1910 
 227   0.0000       0.523436        14.2434 
 228   0.0000       0.524349        14.2683 
 229   0.0000       0.527983        14.3671 
 230   0.0000       0.528485        14.3808 
 231   0.0000       0.529582        14.4106 
 232   0.0000       0.531817        14.4715 
 233   0.0000       0.533803        14.5255 
 234   0.0000       0.536499        14.5989 
 235   0.0000       0.537327        14.6214 
 236   0.0000       0.541521        14.7355 
 237   0.0000       0.543352        14.7854 
 238   0.0000       0.548017        14.9123 
 239   0.0000       0.549683        14.9576 
 240   0.0000       0.550851        14.9894 
 241   0.0000       0.552544        15.0355 
 242   0.0000       0.554191        15.0803 
 243   0.0000       0.557359        15.1665 
 244   0.0000       0.559905        15.2358 
 245   0.0000       0.560676        15.2568 
 246   0.0000       0.565584        15.3903 
 247   0.0000       0.567755        15.4494 
 248   0.0000       0.568309        15.4645 
 249   0.0000       0.571382        15.5481 
 250   0.0000       0.574737        15.6394 
 251   0.0000       0.574843        15.6423 
 252   0.0000       0.580317        15.7912 
 253   0.0000       0.582620        15.8539 
 254   0.0000       0.583345        15.8736 
 255   0.0000       0.585745        15.9389 
 256   0.0000       0.589123        16.0309 
 257   0.0000       0.590594        16.0709 
 258   0.0000       0.599339        16.3088 
 259   0.0000       0.600837        16.3496 
 260   0.0000       0.601041        16.3551 
 261   0.0000       0.605576        16.4785 
 262   0.0000       0.607300        16.5255 
 263   0.0000       0.609349        16.5812 
 264   0.0000       0.613191        16.6858 
 265   0.0000       0.615130        16.7385 
 266   0.0000       0.615955        16.7610 
 267   0.0000       0.621586        16.9142 
 268   0.0000       0.622690        16.9443 
 269   0.0000       0.624219        16.9859 
 270   0.0000       0.627490        17.0749 
 271   0.0000       0.629784        17.1373 
 272   0.0000       0.633062        17.2265 
 273   0.0000       0.635673        17.2975 
 274   0.0000       0.636502        17.3201 
 275   0.0000       0.642093        17.4722 
 276   0.0000       0.642934        17.4951 
 277   0.0000       0.644258        17.5312 
 278   0.0000       0.646109        17.5815 
 279   0.0000       0.649731        17.6801 
 280   0.0000       0.653464        17.7816 
 281   0.0000       0.655135        17.8271 
 282   0.0000       0.657652        17.8956 
 283   0.0000       0.660539        17.9742 
 284   0.0000       0.664148        18.0724 
 285   0.0000       0.665246        18.1023 
 286   0.0000       0.668862        18.2007 
 287   0.0000       0.669071        18.2063 
 288   0.0000       0.670556        18.2467 
 289   0.0000       0.679920        18.5016 
 290   0.0000       0.681073        18.5329 
 291   0.0000       0.682679        18.5767 
 292   0.0000       0.685424        18.6513 
 293   0.0000       0.691273        18.8105 
 294   0.0000       0.693291        18.8654 
 295   0.0000       0.695663        18.9299 
 296   0.0000       0.698294        19.0016 
 297   0.0000       0.700713        19.0674 
 298   0.0000       0.701062        19.0769 
 299   0.0000       0.705811        19.2061 
 300   0.0000       0.708456        19.2781 
 301   0.0000       0.709108        19.2958 
 302   0.0000       0.712743        19.3947 
 303   0.0000       0.713724        19.4214 
 304   0.0000       0.718567        19.5532 
 305   0.0000       0.719476        19.5779 
 306   0.0000       0.726176        19.7602 
 307   0.0000       0.727035        19.7836 
 308   0.0000       0.731317        19.9001 
 309   0.0000       0.732495        19.9322 
 310   0.0000       0.733802        19.9678 
 311   0.0000       0.735028        20.0011 
 312   0.0000       0.738372        20.0921 
 313   0.0000       0.740196        20.1417 
 314   0.0000       0.743636        20.2354 
 315   0.0000       0.744853        20.2685 
 316   0.0000       0.748725        20.3738 
 317   0.0000       0.758333        20.6353 
 318   0.0000       0.762598        20.7513 
 319   0.0000       0.766674        20.8623 
 320   0.0000       0.769867        20.9491 
 321   0.0000       0.772417        21.0185 
 322   0.0000       0.774391        21.0722 
 323   0.0000       0.775118        21.0920 
 324   0.0000       0.776853        21.1392 
 325   0.0000       0.782597        21.2955 
 326   0.0000       0.783447        21.3187 
 327   0.0000       0.785308        21.3693 
 328   0.0000       0.786193        21.3934 
 329   0.0000       0.788897        21.4670 
 330   0.0000       0.793133        21.5822 
 331   0.0000       0.797595        21.7037 
 332   0.0000       0.801541        21.8110 
 333   0.0000       0.801888        21.8205 
 334   0.0000       0.804299        21.8861 
 335   0.0000       0.807238        21.9661 
 336   0.0000       0.807925        21.9848 
 337   0.0000       0.813784        22.1442 
 338   0.0000       0.818169        22.2635 
 339   0.0000       0.818487        22.2722 
 340   0.0000       0.821938        22.3661 
 341   0.0000       0.824785        22.4435 
 342   0.0000       0.831077        22.6147 
 343   0.0000       0.831513        22.6266 
 344   0.0000       0.833714        22.6865 
 345   0.0000       0.839396        22.8411 
 346   0.0000       0.842075        22.9140 
 347   0.0000       0.844179        22.9713 
 348   0.0000       0.848660        23.0932 
 349   0.0000       0.852390        23.1947 
 350   0.0000       0.852864        23.2076 
 351   0.0000       0.853611        23.2279 
 352   0.0000       0.859935        23.4000 
 353   0.0000       0.862016        23.4566 
 354   0.0000       0.865187        23.5429 
 355   0.0000       0.866980        23.5917 
 356   0.0000       0.868064        23.6212 
 357   0.0000       0.873010        23.7558 
 358   0.0000       0.876627        23.8542 
 359   0.0000       0.878523        23.9058 
 360   0.0000       0.880429        23.9577 
 361   0.0000       0.884815        24.0771 
 362   0.0000       0.891743        24.2656 
 363   0.0000       0.895073        24.3562 
 364   0.0000       0.897869        24.4322 
 365   0.0000       0.899840        24.4859 
 366   0.0000       0.901709        24.5368 
 367   0.0000       0.906705        24.6727 
 368   0.0000       0.909764        24.7559 
 369   0.0000       0.913336        24.8531 
 370   0.0000       0.915318        24.9071 
 371   0.0000       0.918504        24.9938 
 372   0.0000       0.920058        25.0361 
 373   0.0000       0.923029        25.1169 
 374   0.0000       0.925910        25.1953 
 375   0.0000       0.931167        25.3383 
 376   0.0000       0.936326        25.4787 
 377   0.0000       0.940747        25.5990 
 378   0.0000       0.941260        25.6130 
 379   0.0000       0.941493        25.6193 
 380   0.0000       0.943764        25.6811 
 381   0.0000       0.949707        25.8428 
 382   0.0000       0.953848        25.9555 
 383   0.0000       0.954325        25.9685 
 384   0.0000       0.956870        26.0377 
 385   0.0000       0.963967        26.2309 
 386   0.0000       0.966186        26.2913 
 387   0.0000       0.967491        26.3268 
 388   0.0000       0.970303        26.4033 
 389   0.0000       0.973502        26.4903 
 390   0.0000       0.979477        26.6529 
 391   0.0000       0.981097        26.6970 
 392   0.0000       0.984329        26.7850 
 393   0.0000       0.988359        26.8946 
 394   0.0000       0.989645        26.9296 
 395   0.0000       0.992980        27.0204 
 396   0.0000       0.999262        27.1913 
 397   0.0000       1.003005        27.2931 
 398   0.0000       1.004596        27.3365 
 399   0.0000       1.008954        27.4550 
 400   0.0000       1.014869        27.6160 
 401   0.0000       1.018114        27.7043 
 402   0.0000       1.019692        27.7472 
 403   0.0000       1.024655        27.8823 
 404   0.0000       1.026817        27.9411 
 405   0.0000       1.029112        28.0036 
 406   0.0000       1.030703        28.0468 
 407   0.0000       1.036882        28.2150 
 408   0.0000       1.040449        28.3121 
 409   0.0000       1.041727        28.3468 
 410   0.0000       1.045987        28.4628 
 411   0.0000       1.046828        28.4856 
 412   0.0000       1.048518        28.5316 
 413   0.0000       1.059930        28.8421 
 414   0.0000       1.060472        28.8569 
 415   0.0000       1.067145        29.0385 
 416   0.0000       1.072082        29.1728 
 417   0.0000       1.078894        29.3582 
 418   0.0000       1.085844        29.5473 
 419   0.0000       1.088444        29.6181 
 420   0.0000       1.089388        29.6438 
 421   0.0000       1.090935        29.6859 
 422   0.0000       1.091487        29.7009 
 423   0.0000       1.094392        29.7799 
 424   0.0000       1.100771        29.9535 
 425   0.0000       1.103646        30.0317 
 426   0.0000       1.106673        30.1141 
 427   0.0000       1.107253        30.1299 
 428   0.0000       1.112383        30.2695 
 429   0.0000       1.118180        30.4272 
 430   0.0000       1.132913        30.8281 
 431   0.0000       1.136992        30.9391 
 432   0.0000       1.139149        30.9978 
 433   0.0000       1.152883        31.3715 
 434   0.0000       1.154612        31.4186 
 435   0.0000       1.156872        31.4801 
 436   0.0000       1.165269        31.7086 
 437   0.0000       1.174843        31.9691 
 438   0.0000       1.177674        32.0461 
 439   0.0000       1.180980        32.1361 
 440   0.0000       1.183589        32.2071 
 441   0.0000       1.192453        32.4483 
 442   0.0000       1.201768        32.7018 
 443   0.0000       1.207344        32.8535 
 444   0.0000       1.210452        32.9381 
 445   0.0000       1.214282        33.0423 
 446   0.0000       1.224501        33.3204 
 447   0.0000       1.226968        33.3875 
 448   0.0000       1.248079        33.9619 
 449   0.0000       1.248970        33.9862 
 450   0.0000       1.261553        34.3286 
 451   0.0000       1.263452        34.3803 
 452   0.0000       1.271304        34.5939 
 453   0.0000       1.273647        34.6577 
 454   0.0000       1.285519        34.9807 
 455   0.0000       1.301668        35.4202 
 456   0.0000       1.310036        35.6479 
 457   0.0000       1.333294        36.2808 
 458   0.0000       1.336013        36.3548 
 459   0.0000       1.364533        37.1308 
 460   0.0000       1.365919        37.1686 
 461   0.0000       1.370842        37.3025 
 462   0.0000       1.385573        37.7034 
 463   0.0000       1.388144        37.7733 
 464   0.0000       1.400042        38.0971 
 465   0.0000       1.409113        38.3439 
 466   0.0000       1.413459        38.4622 
 467   0.0000       1.431589        38.9555 
 468   0.0000       1.458255        39.6811 
 469   0.0000       1.464910        39.8622 
 470   0.0000       1.471293        40.0359 
 471   0.0000       1.471670        40.0462 
 472   0.0000       1.487778        40.4845 
 473   0.0000       1.496101        40.7110 
 474   0.0000       1.503906        40.9234 
 475   0.0000       1.514040        41.1991 
 476   0.0000       1.524192        41.4754 
 477   0.0000       1.525129        41.5009 
 478   0.0000       1.541359        41.9425 
 479   0.0000       1.550152        42.1818 
 480   0.0000       1.553000        42.2593 
 481   0.0000       1.561436        42.4888 
 482   0.0000       1.575541        42.8726 
 483   0.0000       1.579542        42.9815 
 484   0.0000       1.592806        43.3424 
 485   0.0000       1.599206        43.5166 
 486   0.0000       1.600293        43.5462 
 487   0.0000       1.607914        43.7536 
 488   0.0000       1.610808        43.8323 
 489   0.0000       1.632018        44.4095 
 490   0.0000       1.637259        44.5521 
 491   0.0000       1.638198        44.5776 
 492   0.0000       1.653144        44.9843 
 493   0.0000       1.656054        45.0635 
 494   0.0000       1.664537        45.2943 
 495   0.0000       1.675704        45.5982 
 496   0.0000       1.676621        45.6232 
 497   0.0000       1.687019        45.9061 
 498   0.0000       1.698495        46.2184 
 499   0.0000       1.704294        46.3762 
 500   0.0000       1.705959        46.4215 
 501   0.0000       1.712496        46.5994 
 502   0.0000       1.714340        46.6496 
 503   0.0000       1.719231        46.7827 
 504   0.0000       1.725371        46.9497 
 505   0.0000       1.729351        47.0580 
 506   0.0000       1.749921        47.6178 
 507   0.0000       1.757255        47.8174 
 508   0.0000       1.758515        47.8516 
 509   0.0000       1.765962        48.0543 
 510   0.0000       1.771673        48.2097 
 511   0.0000       1.776141        48.3313 
 512   0.0000       1.787073        48.6287 
 513   0.0000       1.794998        48.8444 
 514   0.0000       1.796002        48.8717 
 515   0.0000       1.802474        49.0478 
 516   0.0000       1.810420        49.2640 
 517   0.0000       1.813818        49.3565 
 518   0.0000       1.820034        49.5257 
 519   0.0000       1.824295        49.6416 
 520   0.0000       1.828657        49.7603 
 521   0.0000       1.832103        49.8541 
 522   0.0000       1.837070        49.9892 
 523   0.0000       1.842805        50.1453 
 524   0.0000       1.845919        50.2300 
 525   0.0000       1.851829        50.3908 
 526   0.0000       1.857180        50.5364 
 527   0.0000       1.877613        51.0924 
 528   0.0000       1.886436        51.3325 
 529   0.0000       1.892265        51.4911 
 530   0.0000       1.898474        51.6601 
 531   0.0000       1.904329        51.8194 
 532   0.0000       1.909963        51.9727 
 533   0.0000       1.912574        52.0438 
 534   0.0000       1.922553        52.3153 
 535   0.0000       1.926345        52.4185 
 536   0.0000       1.942052        52.8459 
 537   0.0000       1.945272        52.9336 
 538   0.0000       1.951454        53.1018 
 539   0.0000       1.963598        53.4322 
 540   0.0000       1.974588        53.7313 
 541   0.0000       1.976030        53.7705 
 542   0.0000       1.983112        53.9632 
 543   0.0000       1.990369        54.1607 
 544   0.0000       1.993781        54.2535 
 545   0.0000       2.010084        54.6972 
 546   0.0000       2.019317        54.9484 
 547   0.0000       2.023229        55.0548 
 548   0.0000       2.047813        55.7238 
 549   0.0000       2.048570        55.7444 
 550   0.0000       2.064698        56.1833 
 551   0.0000       2.068240        56.2797 
 552   0.0000       2.075676        56.4820 
 553   0.0000       2.078280        56.5529 
 554   0.0000       2.092061        56.9279 
 555   0.0000       2.108584        57.3775 
 556   0.0000       2.127639        57.8960 
 557   0.0000       2.128329        57.9148 
 558   0.0000       2.175754        59.2053 
 559   0.0000       2.179356        59.3033 
 560   0.0000       2.185977        59.4835 
 561   0.0000       2.193236        59.6810 
 562   0.0000       2.202262        59.9266 
 563   0.0000       2.209873        60.1337 
 564   0.0000       2.216237        60.3069 
 565   0.0000       2.242717        61.0274 
 566   0.0000       2.265205        61.6393 
 567   0.0000       2.271957        61.8231 
 568   0.0000       2.279838        62.0376 
 569   0.0000       2.290360        62.3239 
 570   0.0000       2.299579        62.5747 
 571   0.0000       2.312266        62.9200 
 572   0.0000       2.315104        62.9972 
 573   0.0000       2.321838        63.1804 
 574   0.0000       2.325710        63.2858 
 575   0.0000       2.342843        63.7520 
 576   0.0000       2.345976        63.8373 
 577   0.0000       2.359372        64.2018 
 578   0.0000       2.368443        64.4486 
 579   0.0000       2.393735        65.1368 
 580   0.0000       2.399214        65.2859 
 581   0.0000       2.403073        65.3909 
 582   0.0000       2.418012        65.7975 
 583   0.0000       2.434601        66.2489 
 584   0.0000       2.463210        67.0274 
 585   0.0000       2.465947        67.1018 
 586   0.0000       2.471692        67.2582 
 587   0.0000       2.480619        67.5011 
 588   0.0000       2.507428        68.2306 
 589   0.0000       2.517455        68.5034 
 590   0.0000       2.529420        68.8290 
 591   0.0000       2.556717        69.5718 
 592   0.0000       2.561948        69.7141 
 593   0.0000       2.570043        69.9344 
 594   0.0000       2.574793        70.0637 
 595   0.0000       2.576209        70.1022 
 596   0.0000       2.609949        71.0203 
 597   0.0000       2.619733        71.2865 
 598   0.0000       2.641909        71.8900 
 599   0.0000       2.645597        71.9904 
 600   0.0000       2.678963        72.8983 
 601   0.0000       2.702566        73.5406 
 602   0.0000       2.711374        73.7802 
 603   0.0000       2.740128        74.5627 
 604   0.0000       2.748675        74.7952 
 605   0.0000       2.749572        74.8197 
 606   0.0000       2.752020        74.8863 
 607   0.0000       2.773320        75.4659 
 608   0.0000       2.781102        75.6776 
 609   0.0000       2.831954        77.0614 
 610   0.0000       2.842340        77.3440 
 611   0.0000       2.853015        77.6345 
 612   0.0000       2.878399        78.3252 
 613   0.0000       2.904552        79.0369 
 614   0.0000       2.922310        79.5201 
 615   0.0000       2.930165        79.7338 
 616   0.0000       2.950573        80.2892 
 617   0.0000       2.957581        80.4799 
 618   0.0000       2.988931        81.3329 
 619   0.0000       2.992796        81.4381 
 620   0.0000       3.018144        82.1279 
 621   0.0000       3.042852        82.8002 
 622   0.0000       3.069980        83.5384 
 623   0.0000       3.091733        84.1303 
 624   0.0000       3.129410        85.1556 
 625   0.0000       3.142845        85.5212 
 626   0.0000       3.173802        86.3636 
 627   0.0000       3.234671        88.0199 
 628   0.0000       3.246373        88.3383 
 629   0.0000       3.271242        89.0150 
 630   0.0000       3.314135        90.1822 
 631   0.0000       3.324546        90.4655 
 632   0.0000       3.356239        91.3279 
 633   0.0000       3.359039        91.4041 
 634   0.0000       3.385092        92.1130 
 635   0.0000       3.405384        92.6652 
 636   0.0000       3.410775        92.8119 
 637   0.0000       3.414001        92.8997 
 638   0.0000       3.444657        93.7339 
 639   0.0000       3.453676        93.9793 
 640   0.0000       3.481458        94.7353 
 641   0.0000       3.503944        95.3472 
 642   0.0000       3.531130        96.0869 
 643   0.0000       3.538645        96.2914 
 644   0.0000       3.552225        96.6610 
 645   0.0000       3.605865        98.1206 
 646   0.0000       3.619250        98.4848 
 647   0.0000       3.634261        98.8933 
 648   0.0000       3.653755        99.4237 
 649   0.0000       3.657458        99.5245 
 650   0.0000       3.659875        99.5902 
 651   0.0000       3.681322       100.1739 
 652   0.0000       3.688757       100.3762 
 653   0.0000       3.690673       100.4283 
 654   0.0000       3.719002       101.1992 
 655   0.0000       3.770454       102.5993 
 656   0.0000       3.799149       103.3801 
 657   0.0000       3.800095       103.4058 
 658   0.0000       3.805769       103.5602 
 659   0.0000       3.829983       104.2191 
 660   0.0000       3.841694       104.5378 
 661   0.0000       3.850692       104.7827 
 662   0.0000       3.867505       105.2402 
 663   0.0000       3.884657       105.7069 
 664   0.0000       3.900689       106.1431 
 665   0.0000       3.902193       106.1841 
 666   0.0000       3.905745       106.2807 
 667   0.0000       3.909417       106.3807 
 668   0.0000       3.928663       106.9043 
 669   0.0000       3.956311       107.6567 
 670   0.0000       3.958971       107.7291 
 671   0.0000       3.983266       108.3902 
 672   0.0000       4.000228       108.8517 
 673   0.0000       4.006093       109.0113 
 674   0.0000       4.013045       109.2005 
 675   0.0000       4.033382       109.7539 
 676   0.0000       4.041605       109.9777 
 677   0.0000       4.042169       109.9930 
 678   0.0000       4.064643       110.6046 
 679   0.0000       4.083329       111.1130 
 680   0.0000       4.088422       111.2516 
 681   0.0000       4.100440       111.5787 
 682   0.0000       4.102931       111.6464 
 683   0.0000       4.106897       111.7543 
 684   0.0000       4.114608       111.9642 
 685   0.0000       4.126133       112.2778 
 686   0.0000       4.129581       112.3716 
 687   0.0000       4.136077       112.5484 
 688   0.0000       4.149126       112.9035 
 689   0.0000       4.155934       113.0887 
 690   0.0000       4.175906       113.6322 
 691   0.0000       4.182794       113.8196 
 692   0.0000       4.183345       113.8346 
 693   0.0000       4.199144       114.2645 
 694   0.0000       4.207177       114.4831 
 695   0.0000       4.211249       114.5939 
 696   0.0000       4.230887       115.1283 
 697   0.0000       4.237055       115.2961 
 698   0.0000       4.237927       115.3198 
 699   0.0000       4.243200       115.4634 
 700   0.0000       4.262102       115.9777 
 701   0.0000       4.266704       116.1029 
 702   0.0000       4.290441       116.7488 
 703   0.0000       4.291594       116.7802 
 704   0.0000       4.301185       117.0412 
 705   0.0000       4.303777       117.1117 
 706   0.0000       4.320960       117.5793 
 707   0.0000       4.324990       117.6890 
 708   0.0000       4.333972       117.9334 
 709   0.0000       4.346742       118.2809 
 710   0.0000       4.363178       118.7281 
 711   0.0000       4.363916       118.7482 
 712   0.0000       4.376544       119.0918 
 713   0.0000       4.382746       119.2606 
 714   0.0000       4.386648       119.3668 
 715   0.0000       4.391812       119.5073 
 716   0.0000       4.408140       119.9516 
 717   0.0000       4.413663       120.1019 
 718   0.0000       4.416953       120.1914 
 719   0.0000       4.442258       120.8800 
 720   0.0000       4.446692       121.0006 
 721   0.0000       4.461640       121.4074 
 722   0.0000       4.468381       121.5908 
 723   0.0000       4.497958       122.3957 
 724   0.0000       4.498346       122.4062 
 725   0.0000       4.503301       122.5410 
 726   0.0000       4.525774       123.1526 
 727   0.0000       4.537645       123.4756 
 728   0.0000       4.573409       124.4488 
 729   0.0000       4.573974       124.4642 
 730   0.0000       4.580248       124.6349 
 731   0.0000       4.610894       125.4688 
 732   0.0000       4.614420       125.5647 
 733   0.0000       4.635858       126.1481 
 734   0.0000       4.642054       126.3167 
 735   0.0000       4.653218       126.6205 
 736   0.0000       4.669522       127.0642 
 737   0.0000       4.687371       127.5499 
 738   0.0000       4.714489       128.2878 
 739   0.0000       4.718153       128.3875 
 740   0.0000       4.725995       128.6009 
 741   0.0000       4.729479       128.6957 
 742   0.0000       4.736120       128.8764 
 743   0.0000       4.741223       129.0152 
 744   0.0000       4.761423       129.5649 
 745   0.0000       4.767753       129.7372 
 746   0.0000       4.775306       129.9427 
 747   0.0000       4.778675       130.0344 
 748   0.0000       4.781049       130.0990 
 749   0.0000       4.800292       130.6226 
 750   0.0000       4.801401       130.6528 
 751   0.0000       4.824081       131.2699 
 752   0.0000       4.826299       131.3303 
 753   0.0000       4.828536       131.3911 
 754   0.0000       4.848351       131.9303 
 755   0.0000       4.862080       132.3039 
 756   0.0000       4.872647       132.5915 
 757   0.0000       4.891453       133.1032 
 758   0.0000       4.897992       133.2811 
 759   0.0000       4.899757       133.3292 
 760   0.0000       4.908204       133.5590 
 761   0.0000       4.914127       133.7202 
 762   0.0000       4.937459       134.3551 
 763   0.0000       4.948564       134.6573 
 764   0.0000       4.966238       135.1382 
 765   0.0000       4.971578       135.2835 
 766   0.0000       4.984179       135.6264 
 767   0.0000       4.991989       135.8389 
 768   0.0000       4.999701       136.0488 
 769   0.0000       5.023530       136.6972 
 770   0.0000       5.025048       136.7385 
 771   0.0000       5.039650       137.1359 
 772   0.0000       5.041154       137.1768 
 773   0.0000       5.060740       137.7097 
 774   0.0000       5.061613       137.7335 
 775   0.0000       5.082146       138.2922 
 776   0.0000       5.082269       138.2956 
 777   0.0000       5.111982       139.1041 
 778   0.0000       5.115661       139.2042 
 779   0.0000       5.123432       139.4157 
 780   0.0000       5.130768       139.6153 
 781   0.0000       5.137276       139.7924 
 782   0.0000       5.152839       140.2159 
 783   0.0000       5.159039       140.3846 
 784   0.0000       5.171127       140.7135 
 785   0.0000       5.195087       141.3655 
 786   0.0000       5.197445       141.4297 
 787   0.0000       5.202470       141.5664 
 788   0.0000       5.203543       141.5956 
 789   0.0000       5.225608       142.1960 
 790   0.0000       5.233806       142.4191 
 791   0.0000       5.239527       142.5748 
 792   0.0000       5.242049       142.6434 
 793   0.0000       5.252005       142.9143 
 794   0.0000       5.259575       143.1203 
 795   0.0000       5.266160       143.2995 
 796   0.0000       5.280036       143.6771 
 797   0.0000       5.295985       144.1111 
 798   0.0000       5.305446       144.3685 
 799   0.0000       5.315133       144.6321 
 800   0.0000       5.317562       144.6982 
 801   0.0000       5.327361       144.9649 
 802   0.0000       5.328417       144.9936 
 803   0.0000       5.328903       145.0068 
 804   0.0000       5.342095       145.3658 
 805   0.0000       5.345087       145.4472 
 806   0.0000       5.363739       145.9548 
 807   0.0000       5.366882       146.0403 
 808   0.0000       5.372167       146.1841 
 809   0.0000       5.389059       146.6437 
 810   0.0000       5.396404       146.8436 
 811   0.0000       5.410477       147.2266 
 812   0.0000       5.410920       147.2386 
 813   0.0000       5.418629       147.4484 
 814   0.0000       5.436632       147.9383 
 815   0.0000       5.462661       148.6466 
 816   0.0000       5.466376       148.7477 
 817   0.0000       5.473174       148.9326 
 818   0.0000       5.505392       149.8093 
 819   0.0000       5.511145       149.9659 
 820   0.0000       5.521853       150.2572 
 821   0.0000       5.532213       150.5392 
 822   0.0000       5.565075       151.4334 
 823   0.0000       5.582320       151.9027 
 824   0.0000       5.592431       152.1778 
 825   0.0000       5.598692       152.3482 
 826   0.0000       5.610455       152.6682 
 827   0.0000       5.620555       152.9431 
 828   0.0000       5.642367       153.5366 
[...]
      f+1     :     0.000158
      f-1     :    -0.000079
      f+2     :     0.000741
      f-2     :     0.001821
      f+3     :     0.001663
      f-3     :    -0.000049
 13 H s       :     0.000301  s :     0.000301
      pz      :    -0.000016  p :     0.000012
      px      :     0.000095
      py      :    -0.000067
      dz2     :    -0.000217  d :     0.000277
      dxz     :    -0.000034
      dyz     :     0.000059
      dx2y2   :     0.000662
      dxy     :    -0.000193
 14 H s       :     0.001887  s :     0.001887
      pz      :     0.000192  p :     0.000627
      px      :     0.000427
      py      :     0.000009
      dz2     :     0.000034  d :     0.000206
      dxz     :     0.000065
      dyz     :     0.000034
      dx2y2   :     0.000020
      dxy     :     0.000054
 15 H s       :    -0.000287  s :    -0.000287
      pz      :     0.000044  p :     0.001178
      px      :     0.000856
      py      :     0.000278
      dz2     :    -0.000210  d :    -0.000499
      dxz     :     0.000239
      dyz     :    -0.000050
      dx2y2   :    -0.000310
      dxy     :    -0.000169
 16 C s       :    -0.000175  s :    -0.000175
      pz      :     0.000187  p :     0.000682
      px      :     0.000988
      py      :    -0.000493
      dz2     :    -0.000016  d :     0.006096
      dxz     :     0.003384
      dyz     :     0.000560
      dx2y2   :     0.002071
      dxy     :     0.000097
      f0      :    -0.000078  f :     0.001881
      f+1     :    -0.000269
      f-1     :     0.000466
      f+2     :     0.000061
      f-2     :     0.001413
      f+3     :    -0.000050
      f-3     :     0.000338
 17 H s       :     0.000672  s :     0.000672
      pz      :    -0.000134  p :    -0.000180
      px      :     0.000052
      py      :    -0.000099
      dz2     :    -0.000095  d :     0.000254
      dxz     :    -0.000105
      dyz     :    -0.000004
      dx2y2   :     0.000499
      dxy     :    -0.000041
 18 H s       :     0.000047  s :     0.000047
      pz      :     0.000144  p :     0.000150
      px      :     0.000086
      py      :    -0.000080
      dz2     :    -0.000081  d :    -0.000592
      dxz     :    -0.000326
      dyz     :     0.000028
      dx2y2   :    -0.000160
      dxy     :    -0.000051
 19 H s       :     0.005348  s :     0.005348
      pz      :     0.000139  p :     0.000406
      px      :     0.000132
      py      :     0.000134
      dz2     :     0.000014  d :     0.000033
      dxz     :    -0.000024
      dyz     :     0.000012
      dx2y2   :     0.000034
      dxy     :    -0.000004
 20 C s       :    -0.000902  s :    -0.000902
      pz      :     0.000164  p :     0.001557
      px      :     0.001216
      py      :     0.000177
      dz2     :     0.002535  d :     0.004355
      dxz     :     0.000369
      dyz     :    -0.000007
      dx2y2   :     0.001608
      dxy     :    -0.000149
      f0      :     0.002400  f :     0.006591
      f+1     :     0.000087
      f-1     :    -0.000052
      f+2     :     0.000941
      f-2     :     0.001631
      f+3     :     0.001529
      f-3     :     0.000055
 21 H s       :     0.000318  s :     0.000318
      pz      :    -0.000020  p :     0.000012
      px      :     0.000101
      py      :    -0.000069
      dz2     :    -0.000216  d :     0.000275
      dxz     :    -0.000032
      dyz     :     0.000055
      dx2y2   :     0.000587
      dxy     :    -0.000118
 22 H s       :    -0.000284  s :    -0.000284
      pz      :     0.000034  p :     0.001177
      px      :     0.000905
      py      :     0.000238
      dz2     :    -0.000208  d :    -0.000498
      dxz     :     0.000229
      dyz     :    -0.000046
      dx2y2   :    -0.000314
      dxy     :    -0.000159
 23 H s       :     0.001903  s :     0.001903
      pz      :     0.000193  p :     0.000626
      px      :     0.000419
      py      :     0.000014
      dz2     :     0.000035  d :     0.000208
      dxz     :     0.000062
      dyz     :     0.000038
      dx2y2   :     0.000024
      dxy     :     0.000049
 24 C s       :    -0.000178  s :    -0.000178
      pz      :     0.000148  p :     0.000655
      px      :     0.000911
      py      :    -0.000404
      dz2     :    -0.000023  d :     0.006084
      dxz     :     0.003347
      dyz     :     0.000514
      dx2y2   :     0.002077
      dxy     :     0.000169
      f0      :    -0.000072  f :     0.001870
      f+1     :    -0.000314
      f-1     :     0.000474
      f+2     :    -0.000014
      f-2     :     0.001499
      f+3     :    -0.000004
      f-3     :     0.000301
 25 H s       :     0.000658  s :     0.000658
      pz      :    -0.000133  p :    -0.000180
      px      :     0.000059
      py      :    -0.000106
      dz2     :    -0.000084  d :     0.000254
      dxz     :    -0.000126
      dyz     :     0.000001
      dx2y2   :     0.000516
      dxy     :    -0.000053
 26 H s       :     0.005328  s :     0.005328
      pz      :     0.000136  p :     0.000402
      px      :     0.000127
      py      :     0.000139
      dz2     :     0.000012  d :     0.000034
      dxz     :    -0.000023
      dyz     :     0.000015
      dx2y2   :     0.000033
      dxy     :    -0.000003
 27 H s       :     0.000054  s :     0.000054
      pz      :     0.000142  p :     0.000144
      px      :     0.000098
      py      :    -0.000096
      dz2     :    -0.000070  d :    -0.000601
      dxz     :    -0.000325
      dyz     :     0.000015
      dx2y2   :    -0.000155
      dxy     :    -0.000066
 28 O s       :     0.007262  s :     0.007262
      pz      :     0.009868  p :     0.492404
      px      :     0.467998
      py      :     0.014539
      dz2     :    -0.000339  d :     0.015601
      dxz     :     0.010516
      dyz     :    -0.000439
      dx2y2   :    -0.000220
      dxy     :     0.006083
      f0      :    -0.000218  f :     0.015108
      f+1     :     0.004647
      f-1     :     0.000037
      f+2     :    -0.000242
      f-2     :     0.009902
      f+3     :     0.001165
      f-3     :    -0.000182


                      *****************************
                      * MAYER POPULATION ANALYSIS *
                      *****************************

  NA   - Mulliken gross atomic population
  ZA   - Total nuclear charge
  QA   - Mulliken gross atomic charge
  VA   - Mayer's total valence
  BVA  - Mayer's bonded valence
  FA   - Mayer's free valence

  ATOM       NA         ZA         QA         VA         BVA        FA
  0 C      5.6290     6.0000     0.3710    -4.5785    -4.5802     0.0017
  1 C      7.2364     6.0000    -1.2364     1.4997     1.4987     0.0010
  2 C      7.3867     6.0000    -1.3867     1.7439     1.7431     0.0009
  3 H      1.5045     1.0000    -0.5045     2.0676     2.0676     0.0000
  4 H      0.7851     1.0000     0.2149    -0.9974    -0.9974    -0.0000
  5 C      5.8691     6.0000     0.1309    -2.7942    -2.8435     0.0493
  6 H     -0.0336     1.0000     1.0336    -1.1828    -1.1826    -0.0002
  7 H      0.1002     1.0000     0.8998    -0.7618    -0.7618     0.0001
  8 C      5.8422     6.0000     0.1578    -2.5595    -2.6082     0.0488
  9 H      0.1939     1.0000     0.8061    -0.4486    -0.4487     0.0001
 10 H      0.1105     1.0000     0.8895    -0.6500    -0.6498    -0.0002
 11 B      5.1042     5.0000    -0.1042    -1.2719    -1.4000     0.1281
 12 C      6.9474     6.0000    -0.9474     1.3161     1.3158     0.0003
 13 H      0.4312     1.0000     0.5688     1.0053     1.0051     0.0002
 14 H      1.1187     1.0000    -0.1187     1.9232     1.9231     0.0001
 15 H      0.3660     1.0000     0.6340     0.6583     0.6581     0.0002
 16 C      6.5767     6.0000    -0.5767     1.4484     1.4474     0.0010
 17 H      1.8799     1.0000    -0.8799     0.1462     0.1463    -0.0001
 18 H     -0.1055     1.0000     1.1055    -0.5869    -0.5873     0.0003
 19 H      1.0599     1.0000    -0.0599     1.9542     1.9534     0.0007
 20 C      6.9531     6.0000    -0.9531     1.2830     1.2826     0.0003
 21 H      0.4775     1.0000     0.5225     1.1310     1.1308     0.0002
 22 H      0.3682     1.0000     0.6318     0.5730     0.5728     0.0002
 23 H      1.1248     1.0000    -0.1248     1.9639     1.9639     0.0000
 24 C      6.5542     6.0000    -0.5542     1.5361     1.5353     0.0008
 25 H      1.7289     1.0000    -0.7289     0.1424     0.1425    -0.0001
 26 H      1.1343     1.0000    -0.1343     2.0990     2.0983     0.0007
 27 H     -0.1131     1.0000     1.1131    -0.5649    -0.5652     0.0003
 28 O      8.7698     8.0000    -0.7698     1.4927     1.1597     0.3330

  Mayer bond orders larger than 0.100000
B(  0-C ,  3-H ) :   2.1716 B(  0-C ,  4-H ) :   0.8193 B(  0-C ,  5-C ) :  -2.1837 
B(  0-C ,  6-H ) :   0.2634 B(  0-C ,  7-H ) :  -0.4469 B(  0-C ,  8-C ) :  -1.8070 
B(  0-C ,  9-H ) :  -0.4076 B(  0-C , 10-H ) :   0.5328 B(  0-C , 13-H ) :   0.1605 
B(  0-C , 16-C ) :  -1.4461 B(  0-C , 17-H ) :  -0.8488 B(  0-C , 18-H ) :   0.3002 
B(  0-C , 19-H ) :  -0.1057 B(  0-C , 21-H ) :   0.1605 B(  0-C , 24-C ) :  -1.3800 
B(  0-C , 25-H ) :  -0.6461 B(  0-C , 26-H ) :  -0.1728 B(  0-C , 27-H ) :   0.3273 
B(  0-C , 28-O ) :   0.1892 B(  1-C ,  2-C ) :   1.2653 B(  1-C ,  4-H ) :  -0.4929 
B(  1-C ,  5-C ) :   0.1339 B(  1-C ,  6-H ) :  -0.9536 B(  1-C ,  7-H ) :   0.3449 
B(  1-C ,  8-C ) :   0.3829 B(  1-C , 10-H ) :  -0.5072 B(  1-C , 12-C ) :  -0.1303 
B(  1-C , 13-H ) :  -0.2421 B(  1-C , 14-H ) :  -0.1961 B(  1-C , 15-H ) :   0.5792 
B(  1-C , 16-C ) :  -0.4000 B(  1-C , 17-H ) :   1.1564 B(  1-C , 18-H ) :  -0.2573 
B(  1-C , 19-H ) :  -0.4497 B(  1-C , 20-C ) :  -1.6245 B(  1-C , 22-H ) :  -0.4531 
B(  1-C , 24-C ) :   1.3745 B(  1-C , 25-H ) :   1.6954 B(  1-C , 26-H ) :   1.1686 
B(  1-C , 27-H ) :  -0.5052 B(  1-C , 28-O ) :  -0.1392 B(  2-C ,  4-H ) :  -0.5406 
B(  2-C ,  5-C ) :  -0.3363 B(  2-C ,  6-H ) :  -0.4529 B(  2-C ,  7-H ) :  -0.1408 
B(  2-C ,  9-H ) :   0.3020 B(  2-C , 10-H ) :  -1.0437 B(  2-C , 11-B ) :   0.5425 
B(  2-C , 12-C ) :  -1.3024 B(  2-C , 15-H ) :  -0.3251 B(  2-C , 16-C ) :   1.1405 
B(  2-C , 17-H ) :   1.6702 B(  2-C , 18-H ) :  -0.4492 B(  2-C , 19-H ) :   0.9872 
B(  2-C , 21-H ) :  -0.2581 B(  2-C , 22-H ) :   0.7055 B(  2-C , 23-H ) :  -0.1803 
B(  2-C , 24-C ) :  -0.3658 B(  2-C , 25-H ) :   1.3352 B(  2-C , 26-H ) :  -0.4664 
B(  2-C , 27-H ) :  -0.3868 B(  3-H ,  4-H ) :   0.3962 B(  3-H ,  7-H ) :  -0.2438 
B(  3-H ,  9-H ) :  -0.2833 B(  3-H , 12-C ) :  -0.1720 B(  3-H , 13-H ) :   0.1038 
B(  3-H , 14-H ) :  -0.1379 B(  3-H , 16-C ) :   0.1582 B(  3-H , 20-C ) :  -0.1356 
B(  3-H , 21-H ) :   0.1039 B(  3-H , 23-H ) :  -0.1481 B(  3-H , 24-C ) :   0.2409 
B(  3-H , 28-O ) :  -0.1417 B(  4-H ,  5-C ) :  -0.1296 B(  4-H , 10-H ) :  -0.1022 
B(  4-H , 11-B ) :   0.3950 B(  4-H , 16-C ) :  -0.2718 B(  4-H , 17-H ) :  -0.2633 
B(  4-H , 19-H ) :  -0.1742 B(  4-H , 24-C ) :  -0.2804 B(  4-H , 25-H ) :  -0.2073 
B(  4-H , 26-H ) :  -0.1821 B(  4-H , 28-O ) :  -0.1875 B(  5-C ,  6-H ) :  -0.5772 
B(  5-C ,  7-H ) :  -1.3356 B(  5-C ,  8-C ) :   2.6915 B(  5-C , 10-H ) :   0.5168 
B(  5-C , 11-B ) :  -0.5995 B(  5-C , 12-C ) :  -1.2178 B(  5-C , 13-H ) :  -0.2504 
B(  5-C , 14-H ) :   0.2578 B(  5-C , 15-H ) :  -0.3171 B(  5-C , 16-C ) :  -0.4057 
B(  5-C , 17-H ) :  -0.5590 B(  5-C , 18-H ) :   0.2511 B(  5-C , 19-H ) :   0.1190 
B(  5-C , 20-C ) :   1.0195 B(  5-C , 21-H ) :   0.3588 B(  5-C , 23-H ) :   1.0624 
B(  5-C , 24-C ) :   0.1505 B(  5-C , 25-H ) :  -1.5136 B(  5-C , 27-H ) :  -0.2709 
B(  5-C , 28-O ) :   0.3648 B(  6-H ,  7-H ) :   0.8466 B(  6-H ,  8-C ) :   0.4626 
B(  6-H , 11-B ) :   0.5957 B(  6-H , 17-H ) :  -0.3367 B(  6-H , 21-H ) :  -0.4144 
B(  6-H , 22-H ) :  -0.1079 B(  6-H , 25-H ) :  -0.2449 B(  6-H , 26-H ) :  -0.3003 
B(  6-H , 27-H ) :   0.1785 B(  7-H ,  8-C ) :  -0.1304 B(  7-H ,  9-H ) :   0.3226 
B(  7-H , 11-B ) :   0.4265 B(  7-H , 12-C ) :   0.1519 B(  7-H , 16-C ) :   0.1728 
B(  7-H , 20-C ) :  -0.2835 B(  7-H , 24-C ) :  -0.4174 B(  7-H , 25-H ) :   0.1564 
B(  7-H , 26-H ) :  -0.1420 B(  8-C ,  9-H ) :  -1.1632 B(  8-C , 10-H ) :  -0.5096 
B(  8-C , 11-B ) :  -0.9527 B(  8-C , 12-C ) :   0.8562 B(  8-C , 13-H ) :   0.1901 
B(  8-C , 14-H ) :   1.0097 B(  8-C , 16-C ) :   0.2381 B(  8-C , 17-H ) :  -1.4525 
B(  8-C , 18-H ) :  -0.3969 B(  8-C , 20-C ) :  -1.2374 B(  8-C , 21-H ) :  -0.1341 
B(  8-C , 22-H ) :  -0.4232 B(  8-C , 24-C ) :  -0.4910 B(  8-C , 25-H ) :  -0.5999 
B(  8-C , 26-H ) :   0.1397 B(  8-C , 27-H ) :   0.3029 B(  8-C , 28-O ) :   0.2173 
B(  9-H , 10-H ) :   0.7287 B(  9-H , 11-B ) :   0.1707 B(  9-H , 12-C ) :  -0.1974 
B(  9-H , 16-C ) :  -0.3265 B(  9-H , 20-C ) :   0.1712 B(  9-H , 24-C ) :   0.1812 
B(  9-H , 25-H ) :  -0.1182 B( 10-H , 11-B ) :   0.4351 B( 10-H , 13-H ) :  -0.2837 
B( 10-H , 16-C ) :   0.1528 B( 10-H , 17-H ) :  -0.2411 B( 10-H , 18-H ) :   0.1616 
B( 10-H , 19-H ) :  -0.1757 B( 10-H , 25-H ) :  -0.4545 B( 10-H , 26-H ) :   0.1064 
B( 11-B , 12-C ) :   0.5805 B( 11-B , 14-H ) :  -0.1658 B( 11-B , 15-H ) :  -0.3289 
B( 11-B , 16-C ) :  -1.3055 B( 11-B , 17-H ) :  -0.8653 B( 11-B , 18-H ) :   0.1937 
B( 11-B , 19-H ) :   0.1989 B( 11-B , 20-C ) :   0.5912 B( 11-B , 21-H ) :   0.1919 
B( 11-B , 22-H ) :  -0.4393 B( 11-B , 24-C ) :  -1.1385 B( 11-B , 25-H ) :  -0.7847 
B( 11-B , 26-H ) :   0.3694 B( 11-B , 27-H ) :   0.1350 B( 11-B , 28-O ) :   0.2977 
B( 12-C , 13-H ) :   0.4843 B( 12-C , 14-H ) :   1.0898 B( 12-C , 15-H ) :   0.5029 
B( 12-C , 16-C ) :  -0.4416 B( 12-C , 17-H ) :  -0.1971 B( 12-C , 18-H ) :   0.1307 
B( 12-C , 20-C ) :   0.5018 B( 12-C , 21-H ) :   0.1103 B( 12-C , 22-H ) :   0.2360 
B( 12-C , 24-C ) :   0.1194 B( 12-C , 25-H ) :   0.2256 B( 13-H , 20-C ) :   0.1490 
B( 13-H , 22-H ) :   0.1400 B( 13-H , 24-C ) :   0.1180 B( 13-H , 25-H ) :   0.2788 
B( 14-H , 15-H ) :   0.1857 B( 14-H , 18-H ) :  -0.1159 B( 14-H , 19-H ) :   0.2147 
B( 14-H , 25-H ) :  -0.1087 B( 15-H , 20-C ) :   0.2108 B( 15-H , 22-H ) :   0.2232 
B( 16-C , 17-H ) :   2.7260 B( 16-C , 18-H ) :   0.2851 B( 16-C , 19-H ) :   0.5971 
B( 16-C , 20-C ) :   0.1243 B( 16-C , 21-H ) :   0.1151 B( 16-C , 24-C ) :   0.3646 
B( 16-C , 25-H ) :  -0.2912 B( 16-C , 28-O ) :   0.1813 B( 17-H , 18-H ) :  -0.6394 
B( 17-H , 19-H ) :   0.1153 B( 17-H , 20-C ) :   0.2789 B( 17-H , 21-H ) :   0.3001 
B( 17-H , 23-H ) :  -0.1548 B( 17-H , 24-C ) :  -0.2142 B( 17-H , 25-H ) :  -0.4539 
B( 17-H , 28-O ) :   0.2475 B( 18-H , 28-O ) :  -0.1148 B( 20-C , 21-H ) :   0.4663 
B( 20-C , 22-H ) :   0.5579 B( 20-C , 23-H ) :   1.1262 B( 20-C , 24-C ) :  -0.3681 
B( 20-C , 25-H ) :  -0.1825 B( 20-C , 26-H ) :   0.1492 B( 20-C , 27-H ) :   0.1360 
B( 21-H , 23-H ) :   0.1231 B( 21-H , 25-H ) :  -0.1258 B( 21-H , 26-H ) :   0.1073 
B( 22-H , 23-H ) :   0.2027 B( 22-H , 27-H ) :   0.1011 B( 23-H , 25-H ) :  -0.1344 
B( 23-H , 26-H ) :   0.2871 B( 23-H , 27-H ) :  -0.1301 B( 24-C , 25-H ) :   2.5778 
B( 24-C , 26-H ) :   0.5846 B( 24-C , 27-H ) :   0.2801 B( 24-C , 28-O ) :   0.1418 
B( 25-H , 27-H ) :  -0.5708 B( 25-H , 28-O ) :   0.2176 B( 27-H , 28-O ) :  -0.1065 


-------
TIMINGS
-------

Total SCF time: 0 days 0 hours 8 min 16 sec 

Total time                  ....     496.825 sec
Sum of individual times     ....     492.613 sec  ( 99.2%)

Fock matrix formation       ....     459.567 sec  ( 92.5%)
  Split-RI-J                ....      20.649 sec  (  4.5% of F)
  Chain of spheres X        ....     282.337 sec  ( 61.4% of F)
  COS-X 1 center corr.      ....       0.000 sec  (  0.0% of F)
  XC integration            ....     134.630 sec  ( 29.3% of F)
    Basis function eval.    ....       7.499 sec  (  5.6% of XC)
    Density eval.           ....      39.160 sec  ( 29.1% of XC)
    XC-Functional eval.     ....       0.491 sec  (  0.4% of XC)
    XC-Potential eval.      ....      85.029 sec  ( 63.2% of XC)
Diagonalization             ....      15.796 sec  (  3.2%)
Density matrix formation    ....       0.299 sec  (  0.1%)
Population analysis         ....       0.701 sec  (  0.1%)
Initial guess               ....       0.881 sec  (  0.2%)
Orbital Transformation      ....       0.000 sec  (  0.0%)
Orbital Orthonormalization  ....       0.769 sec  (  0.2%)
DIIS solution               ....       7.921 sec  (  1.6%)
Grid generation             ....       7.448 sec  (  1.5%)


-------------------------------------------------------------------------------
                          DFT DISPERSION CORRECTION                            
                                                                               
                              DFTD3 V3.1  Rev 1                                
                          USING Becke-Johnson damping                          
-------------------------------------------------------------------------------
The WB97X-D3BJ functional is recognized
Active option DFTDOPT                   ...         4   

molecular C6(AA) [au] = 6254.044334 


            DFT-D V3
 parameters
 s6 scaling factor         :     1.0000 
 a1 scaling factor         :     0.0000 
 s8 scaling factor         :     0.2641 
 a2 scaling factor         :     5.4959 
 ad hoc parameters k1-k3   :    16.0000     1.3333    -4.0000 

 Edisp/kcal,au: -34.900204648887  -0.055617010370 
 E6   /kcal   : -29.122375332 
 E8   /kcal   :  -5.777829317 
 % E8         :  16.555287783 

-------------------------   ----------------
Dispersion correction           -0.055617010
-------------------------   ----------------


-------------------------   --------------------
FINAL SINGLE POINT ENERGY      -454.320535239530
-------------------------   --------------------


                            ***************************************
                            *     ORCA property calculations      *
                            ***************************************

                                    ---------------------
                                    Active property flags
                                    ---------------------
   (+) Dipole Moment


------------------------------------------------------------------------------
                       ORCA ELECTRIC PROPERTIES CALCULATION
------------------------------------------------------------------------------

Dipole Moment Calculation                       ... on
Quadrupole Moment Calculation                   ... off
Polarizability Calculation                      ... off
GBWName                                         ... boron_0_2.gbw
Electron density file                           ... boron_0_2.scfp
The origin for moment calculation is the CENTER OF MASS  = (-3.320893,  1.280753  0.286996)

-------------
DIPOLE MOMENT
-------------
                                X             Y             Z
Electronic contribution:      0.05970      -2.10584       4.58779
Nuclear contribution   :     -0.08368       3.02575      -5.90595
                        -----------------------------------------
Total Dipole Moment    :     -0.02398       0.91992      -1.31817
                        -----------------------------------------
Magnitude (a.u.)       :      1.60760
Magnitude (Debye)      :      4.08620



--------------------
Rotational spectrum 
--------------------
 
Rotational constants in cm-1:     0.049259     0.032553     0.026540 
Rotational constants in MHz :  1476.761668   975.907592   795.636654 

 Dipole components along the rotational axes: 
x,y,z [a.u.] :    -0.002008     1.600348    -0.152541 
x,y,z [Debye]:    -0.005104     4.067762    -0.387728 

 

Timings for individual modules:

Sum of individual times         ...      535.852 sec (=   8.931 min)
GTO integral calculation        ...       37.996 sec (=   0.633 min)   7.1 %
SCF iterations                  ...      497.856 sec (=   8.298 min)  92.9 %
                             ****ORCA TERMINATED NORMALLY****
TOTAL RUN TIME: 0 days 0 hours 8 minutes 57 seconds 814 msec
