
                                 *****************
                                 * O   R   C   A *
                                 *****************

           --- An Ab Initio, DFT and Semiempirical electronic structure package ---

                  #######################################################
                  #                        -***-                        #
                  #          Department of theory and spectroscopy      #
                  #               Directorship: Frank Neese             #
                  #        Max Planck Institute fuer Kohlenforschung    #
                  #                Kaiser Wilhelm Platz 1               #
                  #                 D-45470 Muelheim/Ruhr               #
                  #                      Germany                        #
                  #                                                     #
                  #                  All rights reserved                #
                  #                        -***-                        #
                  #######################################################


                         Program Version 4.2.1 -  RELEASE  -


 With contributions from (in alphabetic order):
   Daniel Aravena         : Magnetic Suceptibility
   Michael Atanasov       : Ab Initio Ligand Field Theory (pilot matlab implementation)
   Alexander A. Auer      : GIAO ZORA, VPT2
   Ute Becker             : Parallelization
   Giovanni Bistoni       : ED, misc. LED, open-shell LED, HFLD
   Martin Brehm           : Molecular dynamics
   Dmytro Bykov           : SCF Hessian
   Vijay G. Chilkuri      : MRCI spin determinant printing, contributions to CSF-ICE
   Dipayan Datta          : RHF DLPNO-CCSD density
   Achintya Kumar Dutta   : EOM-CC, STEOM-CC
   Dmitry Ganyushin       : Spin-Orbit,Spin-Spin,Magnetic field MRCI
   Miquel Garcia          : C-PCM Hessian, Gaussian charge scheme
   Yang Guo               : DLPNO-NEVPT2, CIM, IAO-localization
   Andreas Hansen         : Spin unrestricted coupled pair/coupled cluster methods
   Benjamin Helmich-Paris : CASSCF linear response (MC-RPA)
   Lee Huntington         : MR-EOM, pCC
   Robert Izsak           : Overlap fitted RIJCOSX, COSX-SCS-MP3, EOM
   Christian Kollmar      : KDIIS, OOCD, Brueckner-CCSD(T), CCSD density
   Simone Kossmann        : Meta GGA functionals, TD-DFT gradient, OOMP2, MP2 Hessian
   Martin Krupicka        : AUTO-CI
   Lucas Lang             : DCDCAS
   Dagmar Lenk            : GEPOL surface, SMD
   Dimitrios Liakos       : Extrapolation schemes; Compound Job, initial MDCI parallelization
   Dimitrios Manganas     : Further ROCIS development; embedding schemes
   Dimitrios Pantazis     : SARC Basis sets
   Taras Petrenko         : DFT Hessian,TD-DFT gradient, ASA, ECA, R-Raman, ABS, FL, XAS/XES, NRVS
   Peter Pinski           : DLPNO-MP2, DLPNO-MP2 Gradient
   Christoph Reimann      : Effective Core Potentials
   Marius Retegan         : Local ZFS, SOC
   Christoph Riplinger    : Optimizer, TS searches, QM/MM, DLPNO-CCSD(T), (RO)-DLPNO pert. Triples
   Tobias Risthaus        : Range-separated hybrids, TD-DFT gradient, RPA, STAB
   Michael Roemelt        : Original ROCIS implementation
   Masaaki Saitow         : Open-shell DLPNO-CCSD energy and density
   Barbara Sandhoefer     : DKH picture change effects
   Avijit Sen             : IP-ROCIS
   Kantharuban Sivalingam : CASSCF convergence, NEVPT2, FIC-MRCI
   Bernardo de Souza      : ESD, SOC TD-DFT
   Georgi Stoychev        : AutoAux, RI-MP2 NMR
   Willem Van den Heuvel  : Paramagnetic NMR
   Boris Wezisla          : Elementary symmetry handling
   Frank Wennmohs         : Technical directorship


 We gratefully acknowledge several colleagues who have allowed us to
 interface, adapt or use parts of their codes:
   Stefan Grimme, W. Hujo, H. Kruse,             : VdW corrections, initial TS optimization,
                  C. Bannwarth                     DFT functionals, gCP, sTDA/sTD-DF
   Ed Valeev, F. Pavosevic, A. Kumar             : LibInt (2-el integral package), F12 methods
   Garnet Chan, S. Sharma, J. Yang, R. Olivares  : DMRG
   Ulf Ekstrom                                   : XCFun DFT Library
   Mihaly Kallay                                 : mrcc  (arbitrary order and MRCC methods)
   Andreas Klamt, Michael Diedenhofen            : otool_cosmo (COSMO solvation model)
   Jiri Pittner, Ondrej Demel                    : Mk-CCSD
   Frank Weinhold                                : gennbo (NPA and NBO analysis)
   Christopher J. Cramer and Donald G. Truhlar   : smd solvation model
   Lars Goerigk                                  : TD-DFT with DH, B97 family of functionals
   V. Asgeirsson, H. Jonsson                     : NEB implementation
   FAccTs GmbH                                   : IRC, NEB, NEB-TS, Multilevel, MM, QM/MM, CI optimization
   S Lehtola, MJT Oliveira, MAL Marques          : LibXC Library


 Your calculation uses the libint2 library for the computation of 2-el integrals
 For citations please refer to: http://libint.valeyev.net

 Your ORCA version has been built with support for libXC version: 4.2.3
 For citations please refer to: https://tddft.org/programs/libxc/

 This ORCA versions uses:
   CBLAS   interface :  Fast vector & matrix operations
   LAPACKE interface :  Fast linear algebra routines
   SCALAPACK package :  Parallel linear algebra routines


Your calculation utilizes the atom-pairwise dispersion correction
with the Becke-Johnson damping scheme (D3BJ)
Cite in your paper:
S.Grimme, S.Ehrlich, L.Goerigk, J Comput Chem, (2011), 32, 1456–1465 
S.Grimme, J.Antony, S.Ehrlich and H.Krieg, J.Chem.Phys., 132, (2010), 154104 
   

----- Orbital basis set information -----
Your calculation utilizes the basis: pc-2
   H, C-F              : F. Jensen, J. Chem. Phys. 115, 9113 (2001).
                         F. Jensen, J. Chem. Phys. 116, 7372 (2002).
                         F. Jensen, J. Chem. Phys. 117, 9234 (2002).
   Si-Cl               : F. Jensen, T. Helgaker, J. Chem. Phys. 121, 3463 (2004).
   He-B, Ne-Mg, Al, Ar : F. Jensen, J. Phys. Chem. A 111, 11198 (2007).
   K, Ca, Ga-Kr        : F. Jensen, J. Chem. Phys. 136, 094110 (2012).
   Sc-Zn               : F. Jensen, J. Chem. Phys. 138, 014107 (2013).

----- AuxJ basis set information -----
Your calculation utilizes the auxiliary basis: def2/J
   F. Weigend, Phys. Chem. Chem. Phys. 8, 1057 (2006).

================================================================================
                                        WARNINGS
                       Please study these warnings very carefully!
================================================================================


WARNING: Geometry Optimization
  ===> : Switching off AutoStart
         For restart on a previous wavefunction, please use MOREAD

INFO   : the flag for use of LIBINT has been found!

================================================================================
                                       INPUT FILE
================================================================================
NAME = phosphorous_2.inp
|  1> ! uks wb97x-D3BJ pc-2 opt grid5 finalgrid6 rijcosx tightscf tightopt
|  2> 
|  3> %PAL 
|  4>   Nprocs 20 
|  5> END
|  6> 
|  7> * xyz 0 2
|  8> C         -1.87450        2.21992       -1.27461
|  9> C         -3.06162        2.02317       -0.44779
| 10> C         -0.44507        2.08022       -0.51693
| 11> H         -1.92377        3.24273       -1.80683
| 12> H         -1.77293        1.43420       -2.10944
| 13> C         -3.23957        0.56731        0.28965
| 14> H         -3.95303        2.24313       -1.07282
| 15> H         -3.05614        2.79596        0.34978
| 16> C         -0.20952        0.66641        0.26040
| 17> H         -0.53022        2.84912        0.34057
| 18> H          0.37873        2.33484       -1.08881
| 19> P         -1.79035        0.18596        1.27542
| 20> C          0.96474        0.82116        1.18032
| 21> H          0.77527        1.58682        1.95537
| 22> H          1.88409        1.10916        0.63278
| 23> H          1.15815       -0.14102        1.68836
| 24> C          0.10621       -0.38722       -0.84364
| 25> H         -0.66301       -0.47038       -1.63062
| 26> H          0.19683       -1.37423       -0.35642
| 27> H          1.07010       -0.15272       -1.33945
| 28> C         -4.45767        0.70681        1.20074
| 29> H         -4.29482        1.47990        1.97445
| 30> H         -4.60652       -0.26262        1.71003
| 31> H         -5.39243        0.95567        0.66016
| 32> C         -3.56427       -0.46463       -0.82970
| 33> H         -2.79842       -0.51530       -1.62270
| 34> H         -4.54102       -0.27128       -1.31806
| 35> H         -3.60920       -1.45455       -0.34200
| 36> O         -1.81565       -1.27033        1.70346
| 37> *
| 38> 
| 39>                          ****END OF INPUT****
================================================================================

                       *****************************
                       * Geometry Optimization Run *
                       *****************************

Geometry optimization settings:
Update method            Update   .... BFGS
Choice of coordinates    CoordSys .... Z-matrix Internals
Initial Hessian          InHess   .... Almoef's Model

Convergence Tolerances:
Energy Change            TolE     ....  1.0000e-06 Eh
Max. Gradient            TolMAXG  ....  1.0000e-04 Eh/bohr
RMS Gradient             TolRMSG  ....  3.0000e-05 Eh/bohr
Max. Displacement        TolMAXD  ....  1.0000e-03 bohr
RMS Displacement         TolRMSD  ....  6.0000e-04 bohr
Strict Convergence                ....  False
------------------------------------------------------------------------------
                        ORCA OPTIMIZATION COORDINATE SETUP
------------------------------------------------------------------------------

The optimization will be done in new redundant internal coordinates
Making redundant internal coordinates   ...  (new redundants) done
Evaluating the initial hessian          ...  (Almloef) done
Evaluating the coordinates              ...  done
Calculating the B-matrix                .... done
Calculating the G-matrix                .... done
Diagonalizing the G-matrix              .... done
The first mode is                       ....   89
The number of degrees of freedom        ....   81

    -----------------------------------------------------------------
                    Redundant Internal Coordinates


    -----------------------------------------------------------------
         Definition                    Initial Value    Approx d2E/dq
    -----------------------------------------------------------------
      1. B(C   1,C   0)                  1.4600         0.483126   
      2. B(C   2,C   0)                  1.6238         0.264641   
      3. B(H   3,C   0)                  1.1540         0.284603   
      4. B(H   4,C   0)                  1.1509         0.287893   
      5. B(C   5,C   1)                  1.6416         0.247884   
      6. B(H   6,C   1)                  1.1107         0.333731   
      7. B(H   7,C   1)                  1.1106         0.333899   
      8. B(C   8,C   2)                  1.6305         0.258232   
      9. B(H   9,C   2)                  1.1549         0.283727   
     10. B(H  10,C   2)                  1.0347         0.441278   
     11. B(P  11,C   8)                  1.9391         0.279366   
     12. B(P  11,C   5)                  1.7937         0.476577   
     13. B(C  12,C   8)                  1.4997         0.417567   
     14. B(H  13,C  12)                  1.1058         0.339769   
     15. B(H  14,C  12)                  1.1081         0.336900   
     16. B(H  15,C  12)                  1.1051         0.340637   
     17. B(C  16,C   8)                  1.5584         0.336518   
     18. B(H  17,C  16)                  1.1036         0.342540   
     19. B(H  18,C  16)                  1.1044         0.341498   
     20. B(H  19,C  16)                  1.1090         0.335811   
     21. B(C  20,C   5)                  1.5275         0.376996   
     22. B(H  21,C  20)                  1.1058         0.339781   
     23. B(H  22,C  20)                  1.1051         0.340623   
     24. B(H  23,C  20)                  1.1081         0.336908   
     25. B(C  24,C   5)                  1.5567         0.338688   
     26. B(H  25,C  24)                  1.1036         0.342545   
     27. B(H  26,C  24)                  1.1090         0.335801   
     28. B(H  27,C  24)                  1.1045         0.341482   
     29. B(O  28,P  11)                  1.5181         1.174865   
     30. A(H   3,C   0,H   4)          105.9205         0.270920   
     31. A(C   2,C   0,H   4)          101.6559         0.295905   
     32. A(C   2,C   0,H   3)          109.2089         0.295368   
     33. A(C   1,C   0,C   2)          116.0985         0.357966   
     34. A(C   1,C   0,H   4)          112.9881         0.326103   
     35. A(C   1,C   0,H   3)          110.2363         0.325487   
     36. A(C   5,C   1,H   7)          107.1594         0.299821   
     37. A(H   6,C   1,H   7)          105.6817         0.284032   
     38. A(C   0,C   1,H   7)          107.9944         0.334193   
     39. A(C   0,C   1,C   5)          117.5188         0.354013   
     40. A(C   5,C   1,H   6)          109.9630         0.299797   
     41. A(C   0,C   1,H   6)          107.8900         0.334166   
     42. A(C   8,C   2,H   9)          103.5308         0.294082   
     43. A(C   0,C   2,H   9)          102.9598         0.295224   
     44. A(C   0,C   2,C   8)          115.1006         0.322412   
     45. A(H   9,C   2,H  10)          107.7736         0.289243   
     46. A(C   8,C   2,H  10)          111.2148         0.315643   
     47. A(C   0,C   2,H  10)          114.9488         0.316904   
     48. A(C  20,C   5,C  24)          108.8499         0.357885   
     49. A(P  11,C   5,C  24)          115.0090         0.396625   
     50. A(P  11,C   5,C  20)          109.6278         0.404177   
     51. A(C   1,C   5,C  20)          105.8655         0.339545   
     52. A(C   1,C   5,P  11)          110.3549         0.375643   
     53. A(C   1,C   5,C  24)          106.7077         0.333542   
     54. A(P  11,C   8,C  16)          111.6216         0.361200   
     55. A(C   2,C   8,C  16)          106.1264         0.335457   
     56. A(P  11,C   8,C  12)          110.0483         0.374825   
     57. A(C   2,C   8,C  12)          108.4257         0.347793   
     58. A(C   2,C   8,P  11)          110.2804         0.345366   
     59. A(C  12,C   8,C  16)          110.2236         0.363778   
     60. A(C   5,P  11,O  28)          110.2085         0.528290   
     61. A(C   8,P  11,O  28)          113.5067         0.478269   
     62. A(C   5,P  11,C   8)          108.5613         0.408528   
     63. A(H  14,C  12,H  15)          107.9528         0.285335   
     64. A(H  13,C  12,H  15)          108.0962         0.285712   
     65. A(C   8,C  12,H  15)          109.2192         0.327308   
     66. A(H  13,C  12,H  14)          107.9697         0.285222   
     67. A(C   8,C  12,H  14)          111.9215         0.326713   
     68. A(C   8,C  12,H  13)          111.5438         0.327170   
     69. A(H  18,C  16,H  19)          108.3535         0.285303   
     70. A(H  17,C  16,H  19)          107.6333         0.285439   
     71. A(C   8,C  16,H  19)          110.4779         0.315216   
     72. A(H  17,C  16,H  18)          107.7238         0.286187   
     73. A(C   8,C  16,H  18)          107.9568         0.316077   
     74. A(C   8,C  16,H  17)          114.5139         0.316234   
     75. A(H  22,C  20,H  23)          107.9506         0.285334   
     76. A(H  21,C  20,H  23)          107.9718         0.285224   
     77. A(C   5,C  20,H  23)          113.7171         0.321278   
     78. A(H  21,C  20,H  22)          108.0993         0.285712   
     79. A(C   5,C  20,H  22)          107.5876         0.321856   
     80. A(C   5,C  20,H  21)          111.3296         0.321725   
     81. A(H  26,C  24,H  27)          108.3539         0.285300   
     82. A(H  25,C  24,H  27)          107.7206         0.286186   
     83. A(C   5,C  24,H  27)          106.5666         0.316406   
     84. A(H  25,C  24,H  26)          107.6244         0.285438   
     85. A(C   5,C  24,H  26)          112.6297         0.315544   
     86. A(C   5,C  24,H  25)          113.7265         0.316566   
     87. D(H   6,C   1,C   0,C   2)    174.6892         0.018456   
     88. D(H   6,C   1,C   0,H   3)     49.8653         0.018456   
     89. D(H   7,C   1,C   0,C   2)     60.8933         0.018456   
     90. D(H   7,C   1,C   0,H   3)    -63.9307         0.018456   
     91. D(C   5,C   1,C   0,H   3)    174.8041         0.018456   
     92. D(H   6,C   1,C   0,H   4)    -68.4263         0.018456   
     93. D(H   7,C   1,C   0,H   4)    177.7777         0.018456   
     94. D(C   5,C   1,C   0,C   2)    -60.3719         0.018456   
     95. D(C   5,C   1,C   0,H   4)     56.5125         0.018456   
     96. D(H   9,C   2,C   0,H   4)   -179.0316         0.006085   
     97. D(C   8,C   2,C   0,H   4)    -67.1357         0.006085   
     98. D(C   8,C   2,C   0,H   3)   -178.7566         0.006085   
     99. D(H   9,C   2,C   0,C   1)    -56.0009         0.006085   
    100. D(H   9,C   2,C   0,H   3)     69.3475         0.006085   
    101. D(H  10,C   2,C   0,H   3)    -47.5589         0.006085   
    102. D(H  10,C   2,C   0,C   1)   -172.9072         0.006085   
    103. D(H  10,C   2,C   0,H   4)     64.0620         0.006085   
    104. D(C   8,C   2,C   0,C   1)     55.8951         0.006085   
    105. D(C  24,C   5,C   1,H   6)     53.2276         0.005488   
    106. D(C  24,C   5,C   1,C   0)    -70.6737         0.005488   
    107. D(C  20,C   5,C   1,H   7)     51.7803         0.005488   
    108. D(C  20,C   5,C   1,H   6)    -62.6212         0.005488   
    109. D(P  11,C   5,C   1,H   6)    178.8297         0.005488   
    110. D(C  20,C   5,C   1,C   0)    173.4774         0.005488   
    111. D(P  11,C   5,C   1,C   0)     54.9283         0.005488   
    112. D(C  24,C   5,C   1,H   7)    167.6291         0.005488   
    113. D(P  11,C   5,C   1,H   7)    -66.7688         0.005488   
    114. D(C  12,C   8,C   2,C   0)   -165.6970         0.005851   
    115. D(P  11,C   8,C   2,H  10)   -178.1053         0.005851   
    116. D(P  11,C   8,C   2,H   9)     66.4140         0.005851   
    117. D(P  11,C   8,C   2,C   0)    -45.1447         0.005851   
    118. D(C  16,C   8,C   2,H  10)    -57.0570         0.005851   
    119. D(C  16,C   8,C   2,H   9)   -172.5377         0.005851   
    120. D(C  16,C   8,C   2,C   0)     75.9036         0.005851   
    121. D(C  12,C   8,C   2,H  10)     61.3425         0.005851   
    122. D(C  12,C   8,C   2,H   9)    -54.1383         0.005851   
    123. D(O  28,P  11,C   8,C  16)     45.9804         0.002540   
    124. D(O  28,P  11,C   8,C   2)    163.6902         0.002540   
    125. D(C   5,P  11,C   8,C  16)    -76.9362         0.002540   
    126. D(C   5,P  11,C   8,C  12)    160.3476         0.002540   
    127. D(C   5,P  11,C   8,C   2)     40.7735         0.002540   
    128. D(O  28,P  11,C   5,C  24)    -46.7530         0.004610   
    129. D(O  28,P  11,C   5,C  20)     76.2634         0.004610   
    130. D(O  28,P  11,C   5,C   1)   -167.5122         0.004610   
    131. D(C   8,P  11,C   5,C  24)     78.1328         0.004610   
    132. D(O  28,P  11,C   8,C  12)    -76.7358         0.002540   
    133. D(C   8,P  11,C   5,C  20)   -158.8508         0.004610   
    134. D(C   8,P  11,C   5,C   1)    -42.6264         0.004610   
    135. D(H  15,C  12,C   8,C  16)    -62.2756         0.013799   
    136. D(H  15,C  12,C   8,P  11)     61.2597         0.013799   
    137. D(H  15,C  12,C   8,C   2)   -178.0440         0.013799   
    138. D(H  14,C  12,C   8,C  16)     57.2071         0.013799   
    139. D(H  14,C  12,C   8,P  11)   -179.2576         0.013799   
    140. D(H  14,C  12,C   8,C   2)    -58.5613         0.013799   
    141. D(H  13,C  12,C   8,C  16)    178.2993         0.013799   
    142. D(H  13,C  12,C   8,P  11)    -58.1654         0.013799   
    143. D(H  13,C  12,C   8,C   2)     62.5309         0.013799   
    144. D(H  18,C  16,C   8,P  11)    -55.6454         0.009187   
    145. D(H  18,C  16,C   8,C   2)   -175.8258         0.009187   
    146. D(H  17,C  16,C   8,C  12)   -173.0618         0.009187   
    147. D(H  17,C  16,C   8,P  11)     64.3223         0.009187   
    148. D(H  18,C  16,C   8,C  12)     66.9706         0.009187   
    149. D(H  17,C  16,C   8,C   2)    -55.8582         0.009187   
    150. D(H  19,C  16,C   8,C  12)    -51.3471         0.009187   
    151. D(H  19,C  16,C   8,P  11)   -173.9630         0.009187   
    152. D(H  19,C  16,C   8,C   2)     65.8566         0.009187   
    153. D(H  23,C  20,C   5,P  11)    179.2939         0.011337   
    154. D(H  23,C  20,C   5,C   1)     60.2635         0.011337   
    155. D(H  22,C  20,C   5,C  24)     65.3780         0.011337   
    156. D(H  22,C  20,C   5,P  11)    -61.2082         0.011337   
    157. D(H  22,C  20,C   5,C   1)    179.7613         0.011337   
    158. D(H  21,C  20,C   5,C  24)   -176.3514         0.011337   
    159. D(H  21,C  20,C   5,P  11)     57.0625         0.011337   
    160. D(H  23,C  20,C   5,C  24)    -54.1199         0.011337   
    161. D(H  21,C  20,C   5,C   1)    -61.9680         0.011337   
    162. D(H  27,C  24,C   5,C  20)    -70.2789         0.009294   
    163. D(H  27,C  24,C   5,P  11)     53.1520         0.009294   
    164. D(H  27,C  24,C   5,C   1)    175.8876         0.009294   
    165. D(H  26,C  24,C   5,C  20)     48.4022         0.009294   
    166. D(H  26,C  24,C   5,P  11)    171.8331         0.009294   
    167. D(H  26,C  24,C   5,C   1)    -65.4313         0.009294   
    168. D(H  25,C  24,C   5,C  20)    171.1907         0.009294   
    169. D(H  25,C  24,C   5,P  11)    -65.3784         0.009294   
    170. D(H  25,C  24,C   5,C   1)     57.3571         0.009294   
    -----------------------------------------------------------------

Number of atoms                         .... 29
Number of degrees of freedom            .... 170

         *************************************************************
         *                GEOMETRY OPTIMIZATION CYCLE   1            *
         *************************************************************
---------------------------------
CARTESIAN COORDINATES (ANGSTROEM)
---------------------------------
  C     -1.874500    2.219920   -1.274610
  C     -3.061620    2.023170   -0.447790
  C     -0.445070    2.080220   -0.516930
  H     -1.923770    3.242730   -1.806830
  H     -1.772930    1.434200   -2.109440
  C     -3.239570    0.567310    0.289650
  H     -3.953030    2.243130   -1.072820
  H     -3.056140    2.795960    0.349780
  C     -0.209520    0.666410    0.260400
  H     -0.530220    2.849120    0.340570
  H      0.378730    2.334840   -1.088810
  P     -1.790350    0.185960    1.275420
  C      0.964740    0.821160    1.180320
  H      0.775270    1.586820    1.955370
  H      1.884090    1.109160    0.632780
  H      1.158150   -0.141020    1.688360
  C      0.106210   -0.387220   -0.843640
  H     -0.663010   -0.470380   -1.630620
  H      0.196830   -1.374230   -0.356420
  H      1.070100   -0.152720   -1.339450
  C     -4.457670    0.706810    1.200740
  H     -4.294820    1.479900    1.974450
  H     -4.606520   -0.262620    1.710030
  H     -5.392430    0.955670    0.660160
  C     -3.564270   -0.464630   -0.829700
  H     -2.798420   -0.515300   -1.622700
  H     -4.541020   -0.271280   -1.318060
  H     -3.609200   -1.454550   -0.342000
  O     -1.815650   -1.270330    1.703460

----------------------------
CARTESIAN COORDINATES (A.U.)
----------------------------
  NO LB      ZA    FRAG     MASS         X           Y           Z
   0 C     6.0000    0    12.011   -3.542292    4.195041   -2.408664
   1 C     6.0000    0    12.011   -5.785623    3.823237   -0.846200
   2 C     6.0000    0    12.011   -0.841060    3.931046   -0.976856
   3 H     1.0000    0     1.008   -3.635398    6.127872   -3.414414
   4 H     1.0000    0     1.008   -3.350352    2.710245   -3.986264
   5 C     6.0000    0    12.011   -6.121900    1.072061    0.547359
   6 H     1.0000    0     1.008   -7.470144    4.238901   -2.027336
   7 H     1.0000    0     1.008   -5.775268    5.283599    0.660988
   8 C     6.0000    0    12.011   -0.395935    1.259332    0.492085
   9 H     1.0000    0     1.008   -1.001971    5.384057    0.643584
  10 H     1.0000    0     1.008    0.715696    4.412208   -2.057553
  11 P    15.0000    0    30.974   -3.383271    0.351413    2.410195
  12 C     6.0000    0    12.011    1.823094    1.551768    2.230482
  13 H     1.0000    0     1.008    1.465048    2.998655    3.695114
  14 H     1.0000    0     1.008    3.560414    2.096009    1.195781
  15 H     1.0000    0     1.008    2.188586   -0.266489    3.190538
  16 C     6.0000    0    12.011    0.200708   -0.731740   -1.594249
  17 H     1.0000    0     1.008   -1.252907   -0.888889   -3.081425
  18 H     1.0000    0     1.008    0.371955   -2.596918   -0.673536
  19 H     1.0000    0     1.008    2.022196   -0.288599   -2.531194
  20 C     6.0000    0    12.011   -8.423775    1.335677    2.269070
  21 H     1.0000    0     1.008   -8.116034    2.796606    3.731170
  22 H     1.0000    0     1.008   -8.705061   -0.496280    3.231488
  23 H     1.0000    0     1.008  -10.190216    1.805955    1.247522
  24 C     6.0000    0    12.011   -6.735494   -0.878023   -1.567906
  25 H     1.0000    0     1.008   -5.288247   -0.973776   -3.066459
  26 H     1.0000    0     1.008   -8.581284   -0.512645   -2.490772
  27 H     1.0000    0     1.008   -6.820400   -2.748701   -0.646286
  28 O     8.0000    0    15.999   -3.431081   -2.400576    3.219073

--------------------------------
INTERNAL COORDINATES (ANGSTROEM)
--------------------------------
 C      0   0   0     0.000000000000     0.00000000     0.00000000
 C      1   0   0     1.459998551129     0.00000000     0.00000000
 C      1   2   0     1.623842725543   116.09845728     0.00000000
 H      1   2   3     1.154047640871   110.23634498   235.17604870
 H      1   2   3     1.150918551506   112.98809479   116.88441173
 C      2   1   3     1.641649260865   117.51878489   299.62805015
 H      2   1   3     1.110700990636   107.88997532   174.68924951
 H      2   1   3     1.110563964569   107.99435593    60.89326637
 C      3   1   2     1.630516619817   115.10059726    55.89510359
 H      3   1   2     1.154886999884   102.95975062   303.99913924
 H      3   1   2     1.034661547947   114.94881341   187.09278207
 P      6   2   1     1.793713724037   110.35490589    54.92831129
 C      9   3   1     1.499695607948   108.42571835   194.30304884
 H     13   9   3     1.105819433271   111.54382090    62.53090324
 H     13   9   3     1.108128365353   111.92152503   301.43870615
 H     13   9   3     1.105125523233   109.21920761   181.95598982
 C      9   3   1     1.558437015538   106.12644958    75.90359583
 H     17   9   3     1.103608859334   114.51385753   304.14184691
 H     17   9   3     1.104438342734   107.95678284   184.17420657
 H     17   9   3     1.109009349915   110.47791593    65.85656109
 C      6   2   1     1.527518526271   105.86552854   173.47741753
 H     21   6   2     1.105809854677   111.32963456   298.03200642
 H     21   6   2     1.105136711679   107.58761023   179.76134668
 H     21   6   2     1.108121966933   113.71709476    60.26346119
 C      6   2   1     1.556687083553   106.70766456   289.32625607
 H     25   6   2     1.103604399864   113.72653860    57.35711696
 H     25   6   2     1.109017707072   112.62969423   294.56867610
 H     25   6   2     1.104450814342   106.56662932   175.88756656
 O     12   6   2     1.518103717043   110.20847299   192.48777436

---------------------------
INTERNAL COORDINATES (A.U.)
---------------------------
 C      0   0   0     0.000000000000     0.00000000     0.00000000
 C      1   0   0     2.758997417556     0.00000000     0.00000000
 C      1   2   0     3.068618035837   116.09845728     0.00000000
 H      1   2   3     2.180833986744   110.23634498   235.17604870
 H      1   2   3     2.174920864795   112.98809479   116.88441173
 C      2   1   3     3.102267510990   117.51878489   299.62805015
 H      2   1   3     2.098920688977   107.88997532   174.68924951
 H      2   1   3     2.098661747238   107.99435593    60.89326637
 C      3   1   2     3.081229868261   115.10059726    55.89510359
 H      3   1   2     2.182420145406   102.95975062   303.99913924
 H      3   1   2     1.955226966919   114.94881341   187.09278207
 P      6   2   1     3.389627701087   110.35490589    54.92831129
 C      9   3   1     2.834013983267   108.42571835   194.30304884
 H     13   9   3     2.089695882450   111.54382090    62.53090324
 H     13   9   3     2.094059131747   111.92152503   301.43870615
 H     13   9   3     2.088384582516   109.21920761   181.95598982
 C      9   3   1     2.945019156333   106.12644958    75.90359583
 H     17   9   3     2.085518503110   114.51385753   304.14184691
 H     17   9   3     2.087085999568   107.95678284   184.17420657
 H     17   9   3     2.095723951298   110.47791593    65.85656109
 C      6   2   1     2.886591679142   105.86552854   173.47741753
 H     21   6   2     2.089677781530   111.32963456   298.03200642
 H     21   6   2     2.088405725615   107.58761023   179.76134668
 H     21   6   2     2.094047040486   113.71709476    60.26346119
 C      6   2   1     2.941712264127   106.70766456   289.32625607
 H     25   6   2     2.085510075934   113.72653860    57.35711696
 H     25   6   2     2.095739744036   112.62969423   294.56867610
 H     25   6   2     2.087109567492   106.56662932   175.88756656
 O     12   6   2     2.868800268099   110.20847299   192.48777436

---------------------
BASIS SET INFORMATION
---------------------
There are 4 groups of distinct atoms

 Group   1 Type C   : 16s6p2d1f contracted to 4s3p2d1f pattern {7711/411/11/1}
 Group   2 Type H   : 6s2p1d contracted to 3s2p1d pattern {411/11/1}
 Group   3 Type P   : 29s16p2d1f contracted to 5s4p2d1f pattern {99911/7711/11/1}
 Group   4 Type O   : 16s6p2d1f contracted to 4s3p2d1f pattern {7711/411/11/1}

Atom   0C    basis set group =>   1
Atom   1C    basis set group =>   1
Atom   2C    basis set group =>   1
Atom   3H    basis set group =>   2
Atom   4H    basis set group =>   2
Atom   5C    basis set group =>   1
Atom   6H    basis set group =>   2
Atom   7H    basis set group =>   2
Atom   8C    basis set group =>   1
Atom   9H    basis set group =>   2
Atom  10H    basis set group =>   2
Atom  11P    basis set group =>   3
Atom  12C    basis set group =>   1
Atom  13H    basis set group =>   2
Atom  14H    basis set group =>   2
Atom  15H    basis set group =>   2
Atom  16C    basis set group =>   1
Atom  17H    basis set group =>   2
Atom  18H    basis set group =>   2
Atom  19H    basis set group =>   2
Atom  20C    basis set group =>   1
Atom  21H    basis set group =>   2
Atom  22H    basis set group =>   2
Atom  23H    basis set group =>   2
Atom  24C    basis set group =>   1
Atom  25H    basis set group =>   2
Atom  26H    basis set group =>   2
Atom  27H    basis set group =>   2
Atom  28O    basis set group =>   4
---------------------------------
AUXILIARY/J BASIS SET INFORMATION
---------------------------------
There are 4 groups of distinct atoms

 Group   1 Type C   : 12s5p4d2f1g contracted to 6s4p3d1f1g pattern {711111/2111/211/2/1}
 Group   2 Type H   : 5s2p1d contracted to 3s1p1d pattern {311/2/1}
 Group   3 Type P   : 14s5p5d2f1g contracted to 8s4p3d1f1g pattern {71111111/2111/311/2/1}
 Group   4 Type O   : 12s5p4d2f1g contracted to 6s4p3d1f1g pattern {711111/2111/211/2/1}

Atom   0C    basis set group =>   1
Atom   1C    basis set group =>   1
Atom   2C    basis set group =>   1
Atom   3H    basis set group =>   2
Atom   4H    basis set group =>   2
Atom   5C    basis set group =>   1
Atom   6H    basis set group =>   2
Atom   7H    basis set group =>   2
Atom   8C    basis set group =>   1
Atom   9H    basis set group =>   2
Atom  10H    basis set group =>   2
Atom  11P    basis set group =>   3
Atom  12C    basis set group =>   1
Atom  13H    basis set group =>   2
Atom  14H    basis set group =>   2
Atom  15H    basis set group =>   2
Atom  16C    basis set group =>   1
Atom  17H    basis set group =>   2
Atom  18H    basis set group =>   2
Atom  19H    basis set group =>   2
Atom  20C    basis set group =>   1
Atom  21H    basis set group =>   2
Atom  22H    basis set group =>   2
Atom  23H    basis set group =>   2
Atom  24C    basis set group =>   1
Atom  25H    basis set group =>   2
Atom  26H    basis set group =>   2
Atom  27H    basis set group =>   2
Atom  28O    basis set group =>   4


           ************************************************************
           *        Program running with 20 parallel MPI-processes    *
           *              working on a common directory               *
           ************************************************************
------------------------------------------------------------------------------
                           ORCA GTO INTEGRAL CALCULATION
                           -- RI-GTO INTEGRALS CHOSEN --
------------------------------------------------------------------------------

                         BASIS SET STATISTICS AND STARTUP INFO

Gaussian basis set:
 # of primitive gaussian shells          ...  460
 # of primitive gaussian functions       ...  910
 # of contracted shells                  ...  220
 # of contracted basis functions         ...  586
 Highest angular momentum                ...    3
 Maximum contraction depth               ...    9
Auxiliary gaussian basis set:
 # of primitive gaussian shells          ...  411
 # of primitive gaussian functions       ... 1065
 # of contracted shells                  ...  257
 # of contracted aux-basis functions     ...  739
 Highest angular momentum                ...    4
 Maximum contraction depth               ...    7
Ratio of auxiliary to basis functions    ...  1.26
Integral package used                  ... LIBINT
 One Electron integrals                  ... done
 Ordering auxiliary basis shells         ... done
 Integral threshhold             Thresh  ...  2.500e-11
 Primitive cut-off               TCut    ...  2.500e-12
 Pre-screening matrix                    ... done
 Shell pair data                         ... 
 Ordering of the shell pairs             ... done (   0.004 sec) 21270 of 24310 pairs
 Determination of significant pairs      ... done (   0.000 sec)
 Creation of shell pair data             ... done (   0.005 sec)
 Storage of shell pair data              ... done (   0.009 sec)
 Shell pair data done in (   0.018 sec)
 Computing two index integrals           ... done
 Cholesky decomposition of the V-matrix  ... done


Timings:
 Total evaluation time                   ...   0.753 sec (  0.013 min)
 One electron matrix time                ...   0.203 sec (  0.003 min) = 27.0%
 Schwartz matrix evaluation time         ...   0.476 sec (  0.008 min) = 63.2%
 Two index repulsion integral time       ...   0.019 sec (  0.000 min) =  2.5%
 Cholesky decomposition of V             ...   0.015 sec (  0.000 min) =  2.1%
 Three index repulsion integral time     ...   0.000 sec (  0.000 min) =  0.0%



           ************************************************************
           *        Program running with 20 parallel MPI-processes    *
           *              working on a common directory               *
           ************************************************************
-------------------------------------------------------------------------------
                                 ORCA SCF
-------------------------------------------------------------------------------

------------
SCF SETTINGS
------------
Hamiltonian:
 Density Functional     Method          .... DFT(GTOs)
 Exchange Functional    Exchange        .... WB97X-V
 Correlation Functional Correlation     .... WB97X-V
 Gradients option       PostSCFGGA      .... off
 Hybrid DFT is turned on
   Fraction HF Exchange ScalHFX         ....  0.167000
   Scaling of DF-GGA-X  ScalDFX         ....  0.000000
   Scaling of DF-GGA-C  ScalDFC         ....  1.000000
   Scaling of DF-LDA-C  ScalLDAC        ....  1.000000
   Perturbative correction              ....  0.000000
   Density functional embedding theory  .... OFF
 Long-range corrected/Screened/Range-Separated Hybrid DFT is turned on
   Amount of maximum screened exact exchange              ....  0.833000
   Range separation parameter mu (erf(mu*r12)/r12)        ....  0.300000
 RI-approximation to the Coulomb term is turned on
   Number of auxiliary basis functions  .... 739
   RIJ-COSX (HFX calculated with COS-X)).... on


General Settings:
 Integral files         IntName         .... phosphorous_2
 Hartree-Fock type      HFTyp           .... UHF
 Total Charge           Charge          ....    0
 Multiplicity           Mult            ....    2
 Number of Electrons    NEL             ....   95
 Basis Dimension        Dim             ....  586
 Nuclear Repulsion      ENuc            ....    801.7554299043 Eh

Convergence Acceleration:
 DIIS                   CNVDIIS         .... on
   Start iteration      DIISMaxIt       ....    12
   Startup error        DIISStart       ....  0.200000
   # of expansion vecs  DIISMaxEq       ....     5
   Bias factor          DIISBfac        ....   1.050
   Max. coefficient     DIISMaxC        ....  10.000
 Newton-Raphson         CNVNR           .... off
 SOSCF                  CNVSOSCF        .... off
 Level Shifting         CNVShift        .... on
   Level shift para.    LevelShift      ....    0.2500
   Turn off err/grad.   ShiftErr        ....    0.0010
 Zerner damping         CNVZerner       .... off
 Static damping         CNVDamp         .... on
   Fraction old density DampFac         ....    0.7000
   Max. Damping (<1)    DampMax         ....    0.9800
   Min. Damping (>=0)   DampMin         ....    0.0000
   Turn off err/grad.   DampErr         ....    0.1000
 Fernandez-Rico         CNVRico         .... off

SCF Procedure:
 Maximum # iterations   MaxIter         ....   125
 SCF integral mode      SCFMode         .... Direct
   Integral package                     .... LIBINT
 Reset frequency        DirectResetFreq ....    20
 Integral Threshold     Thresh          ....  2.500e-11 Eh
 Primitive CutOff       TCut            ....  2.500e-12 Eh

Convergence Tolerance:
 Convergence Check Mode ConvCheckMode   .... Total+1el-Energy
 Convergence forced     ConvForced      .... 0
 Energy Change          TolE            ....  1.000e-08 Eh
 1-El. energy change                    ....  1.000e-05 Eh
 DIIS Error             TolErr          ....  5.000e-07


Diagonalization of the overlap matrix:
Smallest eigenvalue                        ... 2.385e-04
Time for diagonalization                   ...    0.062 sec
Threshold for overlap eigenvalues          ... 1.000e-08
Number of eigenvalues below threshold      ... 0
Time for construction of square roots      ...    0.169 sec
Total time needed                          ...    0.232 sec

-------------------
DFT GRID GENERATION
-------------------

General Integration Accuracy     IntAcc      ...  5.010
Radial Grid Type                 RadialGrid  ... Gauss-Chebyshev
Angular Grid (max. acc.)         AngularGrid ... Lebedev-434
Angular grid pruning method      GridPruning ... 3 (G Style)
Weight generation scheme         WeightScheme... Becke
Basis function cutoff            BFCut       ...    1.0000e-11
Integration weight cutoff        WCut        ...    1.0000e-14
Grids for H and He will be reduced by one unit

# of grid points (after initial pruning)     ... 239212 (   0.0 sec)
# of grid points (after weights+screening)   ... 208664 (   0.1 sec)
nearest neighbour list constructed           ...    0.0 sec
Grid point re-assignment to atoms done       ...    0.1 sec
Grid point division into batches done        ...    1.4 sec
Reduced shell lists constructed in    1.7 sec

Total number of grid points                  ...   208664
Total number of batches                      ...     3274
Average number of points per batch           ...       63
Average number of grid points per atom       ...     7195
Average number of shells per batch           ...   152.10 (69.14%)
Average number of basis functions per batch  ...   378.53 (64.60%)
Average number of large shells per batch     ...   113.32 (74.50%)
Average number of large basis fcns per batch ...   269.81 (71.28%)
Maximum spatial batch extension              ...   1.49,  1.76,  2.06 au
Average spatial batch extension              ...   0.04,  0.04,  0.04 au

Time for grid setup =    1.905 sec

------------------------------
INITIAL GUESS: MODEL POTENTIAL
------------------------------
Loading Hartree-Fock densities                     ... done
Calculating cut-offs                               ... done
Setting up the integral package                    ... done
Initializing the effective Hamiltonian             ... done
Starting the Coulomb interaction                   ... done (   0.1 sec)
Reading the grid                                   ... done
Mapping shells                                     ... done
Starting the XC term evaluation                    ... done (   0.4 sec)
  promolecular density results
     # of electrons  =     94.990879139
     EX              =    -56.103559252
     EC              =     -3.979732295
     EX+EC           =    -60.083291547
Transforming the Hamiltonian                       ... done (   0.0 sec)
Diagonalizing the Hamiltonian                      ... done (   0.1 sec)
Back transforming the eigenvectors                 ... done (   0.0 sec)
Now organizing SCF variables                       ... done
                      ------------------
                      INITIAL GUESS DONE (   2.7 sec)
                      ------------------
--------------------
COSX GRID GENERATION
--------------------

General Integration Accuracy     IntAcc      ...  3.340
Radial Grid Type                 RadialGrid  ... Gauss-Chebyshev
Angular Grid (max. acc.)         AngularGrid ... Lebedev-50
Angular grid pruning method      GridPruning ... 3 (G Style)
Weight generation scheme         WeightScheme... Becke
Basis function cutoff            BFCut       ...    1.0000e-11
Integration weight cutoff        WCut        ...    1.0000e-14
Grids for H and He will be reduced by one unit

# of grid points (after initial pruning)     ...  12266 (   0.0 sec)
# of grid points (after weights+screening)   ...  10982 (   0.0 sec)
nearest neighbour list constructed           ...    0.0 sec
Grid point re-assignment to atoms done       ...    0.0 sec
Grid point division into batches done        ...    0.0 sec
Reduced shell lists constructed in    0.0 sec

Total number of grid points                  ...    10982
Total number of batches                      ...      184
Average number of points per batch           ...       59
Average number of grid points per atom       ...      379
Average number of shells per batch           ...   153.64 (69.83%)
Average number of basis functions per batch  ...   395.27 (67.45%)
Average number of large shells per batch     ...   118.27 (76.98%)
Average number of large basis fcns per batch ...   289.18 (73.16%)
Maximum spatial batch extension              ...   2.80,  2.58,  2.43 au
Average spatial batch extension              ...   0.12,  0.10,  0.10 au

Overlap Fitting                  UseSFitting ... on
Constructing numerical overlap ... done (      0.0 sec)
Inverting numerical overlap    ... done (      0.0 sec)
Obtaining analytic overlap     ... done (      0.0 sec)
Final contraction and storage  ... done (      0.0 sec)


General Integration Accuracy     IntAcc      ...  3.670
Radial Grid Type                 RadialGrid  ... Gauss-Chebyshev
Angular Grid (max. acc.)         AngularGrid ... Lebedev-50
Angular grid pruning method      GridPruning ... 3 (G Style)
Weight generation scheme         WeightScheme... Becke
Basis function cutoff            BFCut       ...    1.0000e-11
Integration weight cutoff        WCut        ...    1.0000e-14
Grids for H and He will be reduced by one unit

# of grid points (after initial pruning)     ...  15778 (   0.0 sec)
# of grid points (after weights+screening)   ...  14092 (   0.0 sec)
nearest neighbour list constructed           ...    0.0 sec
Grid point re-assignment to atoms done       ...    0.0 sec
Grid point division into batches done        ...    0.0 sec
Reduced shell lists constructed in    0.0 sec

Total number of grid points                  ...    14092
Total number of batches                      ...      234
Average number of points per batch           ...       60
Average number of grid points per atom       ...      486
Average number of shells per batch           ...   154.62 (70.28%)
Average number of basis functions per batch  ...   396.00 (67.58%)
Average number of large shells per batch     ...   118.31 (76.52%)
Average number of large basis fcns per batch ...   289.85 (73.19%)
Maximum spatial batch extension              ...   3.01,  3.42,  2.83 au
Average spatial batch extension              ...   0.10,  0.10,  0.10 au

Overlap Fitting                  UseSFitting ... on
Constructing numerical overlap ... done (      0.0 sec)
Inverting numerical overlap    ... done (      0.0 sec)
Obtaining analytic overlap     ... done (      0.0 sec)
Final contraction and storage  ... done (      0.0 sec)


General Integration Accuracy     IntAcc      ...  4.010
Radial Grid Type                 RadialGrid  ... Gauss-Chebyshev
Angular Grid (max. acc.)         AngularGrid ... Lebedev-110
Angular grid pruning method      GridPruning ... 3 (G Style)
Weight generation scheme         WeightScheme... Becke
Basis function cutoff            BFCut       ...    1.0000e-11
Integration weight cutoff        WCut        ...    1.0000e-14
Grids for H and He will be reduced by one unit

# of grid points (after initial pruning)     ...  28290 (   0.0 sec)
# of grid points (after weights+screening)   ...  25306 (   0.0 sec)
nearest neighbour list constructed           ...    0.0 sec
Grid point re-assignment to atoms done       ...    0.0 sec
Grid point division into batches done        ...    0.0 sec
Reduced shell lists constructed in    0.1 sec

Total number of grid points                  ...    25306
Total number of batches                      ...      408
Average number of points per batch           ...       62
Average number of grid points per atom       ...      873
Average number of shells per batch           ...   155.77 (70.81%)
Average number of basis functions per batch  ...   396.23 (67.62%)
Average number of large shells per batch     ...   119.41 (76.66%)
Average number of large basis fcns per batch ...   290.50 (73.32%)
Maximum spatial batch extension              ...   2.53,  2.07,  2.83 au
Average spatial batch extension              ...   0.09,  0.08,  0.09 au

Overlap Fitting                  UseSFitting ... on
Constructing numerical overlap ... done (      0.0 sec)
Inverting numerical overlap    ... done (      0.0 sec)
Obtaining analytic overlap     ... done (      0.0 sec)
Final contraction and storage  ... done (      0.0 sec)

Time for X-Grid setup             =    0.451 sec
--------------
SCF ITERATIONS
--------------
ITER       Energy         Delta-E        Max-DP      RMS-DP      [F,P]     Damp
               ***  Starting incremental Fock matrix formation  ***
  0   -770.5895542047   0.000000000000 0.03482077  0.00027398  0.1822473 0.7000
  1   -770.6360792805  -0.046525075724 0.02285222  0.00020945  0.1125478 0.7000
                               ***Turning on DIIS***
  2   -770.6624320544  -0.026352773891 0.04011048  0.00048944  0.0675377 0.0000
  3   -770.7148534002  -0.052421345836 0.02529891  0.00012041  0.0202331 0.0000
  4   -770.7198104713  -0.004957071073 0.00893115  0.00005269  0.0119887 0.0000
  5   -770.7204723292  -0.000661857933 0.00414337  0.00003217  0.0092999 0.0000
  6   -770.7207356042  -0.000263274976 0.00277427  0.00002105  0.0019604 0.0000
  7   -770.7208325319  -0.000096927701 0.00188549  0.00001327  0.0011187 0.0000
  8   -770.7208756987  -0.000043166789 0.00160892  0.00001521  0.0008992 0.0000
               *** Restarting incremental Fock matrix formation ***
                                   *** Resetting DIIS ***
  9   -770.7209151192  -0.000039420480 0.00039755  0.00000434  0.0006589 0.0000
 10   -770.7209194039  -0.000004284776 0.00032000  0.00000140  0.0006137 0.0000
 11   -770.7209211738  -0.000001769854 0.00035626  0.00000314  0.0004578 0.0000
 12   -770.7209233531  -0.000002179303 0.00027009  0.00000200  0.0001113 0.0000
 13   -770.7209239605  -0.000000607426 0.00007784  0.00000057  0.0000422 0.0000
 14   -770.7209239924  -0.000000031934 0.00002050  0.00000015  0.0000086 0.0000
 15   -770.7209240017  -0.000000009299 0.00001230  0.00000009  0.0000058 0.0000
                 **** Energy Check signals convergence ****

               *****************************************************
               *                     SUCCESS                       *
               *           SCF CONVERGED AFTER  16 CYCLES          *
               *****************************************************

Setting up the final grid:

General Integration Accuracy     IntAcc      ...  5.340
Radial Grid Type                 RadialGrid  ... Gauss-Chebyshev
Angular Grid (max. acc.)         AngularGrid ... Lebedev-590
Angular grid pruning method      GridPruning ... 3 (G Style)
Weight generation scheme         WeightScheme... Becke
Basis function cutoff            BFCut       ...    1.0000e-11
Integration weight cutoff        WCut        ...    1.0000e-14
Grids for H and He will be reduced by one unit

# of grid points (after initial pruning)     ... 381570 (   0.0 sec)
# of grid points (after weights+screening)   ... 330649 (   0.2 sec)
nearest neighbour list constructed           ...    0.0 sec
Grid point re-assignment to atoms done       ...    0.1 sec
Grid point division into batches done        ...    3.7 sec
Reduced shell lists constructed in    4.1 sec

Total number of grid points                  ...   330649
Total number of batches                      ...     5182
Average number of points per batch           ...       63
Average number of grid points per atom       ...    11402
Average number of shells per batch           ...   151.15 (68.70%)
Average number of basis functions per batch  ...   374.78 (63.96%)
Average number of large shells per batch     ...   112.39 (74.36%)
Average number of large basis fcns per batch ...   267.14 (71.28%)
Maximum spatial batch extension              ...   1.62,  1.53,  1.53 au
Average spatial batch extension              ...   0.03,  0.03,  0.03 au

Final grid set up in    4.4 sec
Final integration                            ... done (   1.6 sec)
Change in XC energy                          ...     0.000057782
Integrated number of electrons               ...    95.000081633
Previous integrated no of electrons          ...    94.999857699
Old exchange energy                            =    -26.376251221 Eh
New exchange energy                            =    -26.376087928 Eh
Exchange energy change after final integration =      0.000163294 Eh
Total energy after final integration           =   -770.720702919 Eh
Final COS-X integration done in                =     7.311 sec

----------------
TOTAL SCF ENERGY
----------------

Total Energy       :         -770.72070292 Eh          -20972.37654 eV

Components:
Nuclear Repulsion  :          801.75542990 Eh           21816.87440 eV
Electronic Energy  :        -1572.47613282 Eh          -42789.25094 eV
One Electron Energy:        -2644.43102122 Eh          -71958.62639 eV
Two Electron Energy:         1071.95488840 Eh           29169.37546 eV

Virial components:
Potential Energy   :        -1538.06499852 Eh          -41852.87637 eV
Kinetic Energy     :          767.34429560 Eh           20880.49983 eV
Virial Ratio       :            2.00440012


DFT components:
N(Alpha)           :       48.000041647658 electrons
N(Beta)            :       47.000039985659 electrons
N(Total)           :       95.000081633317 electrons
E(X)               :      -57.224789672408 Eh       
E(C)               :       -3.995990018093 Eh       
E(XC)              :      -61.220779690502 Eh       
DFET-embed. en.    :        0.000000000000 Eh       

---------------
SCF CONVERGENCE
---------------

  Last Energy change         ...    7.4577e-09  Tolerance :   1.0000e-08
  Last MAX-Density change    ...    0.0000e+00  Tolerance :   1.0000e-07
  Last RMS-Density change    ...    0.0000e+00  Tolerance :   5.0000e-09
  Last DIIS Error            ...    3.4880e-06  Tolerance :   5.0000e-07

             **** THE GBW FILE WAS UPDATED (phosphorous_2.gbw) ****
             **** DENSITY FILE WAS UPDATED (phosphorous_2.scfp) ****
             **** ENERGY FILE WAS UPDATED (phosphorous_2.en.tmp) ****
----------------------
UHF SPIN CONTAMINATION
----------------------

Warning: in a DFT calculation there is little theoretical justification to 
         calculate <S**2> as in Hartree-Fock theory. We will do it anyways
         but you should keep in mind that the values have only limited relevance

Expectation value of <S**2>     :     0.756289
Ideal value S*(S+1) for S=0.5   :     0.750000
Deviation                       :     0.006289

             **** THE GBW FILE WAS UPDATED (phosphorous_2.gbw) ****
             **** DENSITY FILE WAS UPDATED (phosphorous_2.scfp) ****
----------------
ORBITAL ENERGIES
----------------
                 SPIN UP ORBITALS
  NO   OCC          E(Eh)            E(eV) 
   0   1.0000     -77.095185     -2097.8666 
   1   1.0000     -19.184656      -522.0410 
   2   1.0000     -10.316293      -280.7206 
   3   1.0000     -10.309270      -280.5295 
   4   1.0000     -10.294965      -280.1402 
   5   1.0000     -10.292949      -280.0854 
   6   1.0000     -10.290575      -280.0208 
   7   1.0000     -10.278234      -279.6850 
   8   1.0000     -10.277813      -279.6735 
   9   1.0000     -10.277159      -279.6557 
  10   1.0000     -10.275282      -279.6046 
  11   1.0000      -6.692145      -182.1025 
  12   1.0000      -4.847581      -131.9094 
  13   1.0000      -4.843548      -131.7997 
  14   1.0000      -4.842816      -131.7797 
  15   1.0000      -1.099266       -29.9126 
  16   1.0000      -0.976107       -26.5612 
  17   1.0000      -0.946533       -25.7565 
  18   1.0000      -0.899918       -24.4880 
  19   1.0000      -0.827851       -22.5270 
  20   1.0000      -0.821261       -22.3477 
  21   1.0000      -0.814163       -22.1545 
  22   1.0000      -0.771466       -20.9927 
  23   1.0000      -0.711928       -19.3726 
  24   1.0000      -0.688328       -18.7304 
  25   1.0000      -0.626111       -17.0373 
  26   1.0000      -0.590790       -16.0762 
  27   1.0000      -0.579542       -15.7701 
  28   1.0000      -0.574327       -15.6282 
  29   1.0000      -0.561719       -15.2851 
  30   1.0000      -0.546798       -14.8791 
  31   1.0000      -0.536405       -14.5963 
  32   1.0000      -0.533096       -14.5063 
  33   1.0000      -0.515840       -14.0367 
  34   1.0000      -0.504988       -13.7414 
  35   1.0000      -0.494140       -13.4462 
  36   1.0000      -0.485144       -13.2014 
  37   1.0000      -0.480697       -13.0804 
  38   1.0000      -0.472869       -12.8674 
  39   1.0000      -0.466885       -12.7046 
  40   1.0000      -0.455824       -12.4036 
  41   1.0000      -0.454384       -12.3644 
  42   1.0000      -0.443767       -12.0755 
  43   1.0000      -0.421714       -11.4754 
  44   1.0000      -0.413162       -11.2427 
  45   1.0000      -0.402271       -10.9464 
  46   1.0000      -0.373585       -10.1658 
  47   1.0000      -0.313325        -8.5260 
  48   0.0000       0.079650         2.1674 
  49   0.0000       0.092145         2.5074 
  50   0.0000       0.095080         2.5873 
  51   0.0000       0.101025         2.7490 
  52   0.0000       0.112455         3.0600 
  53   0.0000       0.118044         3.2121 
  54   0.0000       0.123535         3.3616 
  55   0.0000       0.136884         3.7248 
  56   0.0000       0.140265         3.8168 
  57   0.0000       0.146873         3.9966 
  58   0.0000       0.149013         4.0548 
  59   0.0000       0.154431         4.2023 
  60   0.0000       0.155025         4.2184 
  61   0.0000       0.165513         4.5038 
  62   0.0000       0.168915         4.5964 
  63   0.0000       0.173844         4.7305 
  64   0.0000       0.180070         4.9000 
  65   0.0000       0.183237         4.9861 
  66   0.0000       0.198229         5.3941 
  67   0.0000       0.204715         5.5706 
  68   0.0000       0.209538         5.7018 
  69   0.0000       0.215000         5.8504 
  70   0.0000       0.216173         5.8824 
  71   0.0000       0.222519         6.0551 
  72   0.0000       0.227706         6.1962 
  73   0.0000       0.230275         6.2661 
  74   0.0000       0.246888         6.7182 
  75   0.0000       0.261609         7.1187 
  76   0.0000       0.271967         7.4006 
  77   0.0000       0.287393         7.8204 
  78   0.0000       0.290398         7.9021 
  79   0.0000       0.307435         8.3657 
  80   0.0000       0.307834         8.3766 
  81   0.0000       0.315562         8.5869 
  82   0.0000       0.322962         8.7883 
  83   0.0000       0.329416         8.9639 
  84   0.0000       0.333985         9.0882 
  85   0.0000       0.340426         9.2635 
  86   0.0000       0.352778         9.5996 
  87   0.0000       0.360547         9.8110 
  88   0.0000       0.361808         9.8453 
  89   0.0000       0.372245        10.1293 
  90   0.0000       0.376143        10.2354 
  91   0.0000       0.383831        10.4446 
  92   0.0000       0.393969        10.7204 
  93   0.0000       0.399430        10.8690 
  94   0.0000       0.404626        11.0104 
  95   0.0000       0.411461        11.1964 
  96   0.0000       0.413516        11.2523 
  97   0.0000       0.418891        11.3986 
  98   0.0000       0.419217        11.4075 
  99   0.0000       0.422801        11.5050 
 100   0.0000       0.427721        11.6389 
 101   0.0000       0.437014        11.8917 
 102   0.0000       0.441451        12.0125 
 103   0.0000       0.444408        12.0930 
 104   0.0000       0.450188        12.2502 
 105   0.0000       0.454726        12.3737 
 106   0.0000       0.458619        12.4797 
 107   0.0000       0.465843        12.6762 
 108   0.0000       0.469737        12.7822 
 109   0.0000       0.473898        12.8954 
 110   0.0000       0.485976        13.2241 
 111   0.0000       0.490186        13.3386 
 112   0.0000       0.492797        13.4097 
 113   0.0000       0.496623        13.5138 
 114   0.0000       0.516257        14.0481 
 115   0.0000       0.525377        14.2962 
 116   0.0000       0.529614        14.4115 
 117   0.0000       0.548525        14.9261 
 118   0.0000       0.554296        15.0832 
 119   0.0000       0.562856        15.3161 
 120   0.0000       0.573199        15.5975 
 121   0.0000       0.578749        15.7486 
 122   0.0000       0.587823        15.9955 
 123   0.0000       0.590233        16.0611 
 124   0.0000       0.600965        16.3531 
 125   0.0000       0.631859        17.1938 
 126   0.0000       0.643677        17.5154 
 127   0.0000       0.652364        17.7517 
 128   0.0000       0.662402        18.0249 
 129   0.0000       0.683762        18.6061 
 130   0.0000       0.692181        18.8352 
 131   0.0000       0.693172        18.8622 
 132   0.0000       0.738404        20.0930 
 133   0.0000       0.746197        20.3050 
 134   0.0000       0.764657        20.8074 
 135   0.0000       0.774046        21.0629 
 136   0.0000       0.796173        21.6650 
 137   0.0000       0.807304        21.9679 
 138   0.0000       0.822273        22.3752 
 139   0.0000       0.843832        22.9618 
 140   0.0000       0.858473        23.3602 
 141   0.0000       0.861318        23.4377 
 142   0.0000       0.875412        23.8212 
 143   0.0000       0.887679        24.1550 
 144   0.0000       0.897493        24.4220 
 145   0.0000       0.905827        24.6488 
 146   0.0000       0.932522        25.3752 
 147   0.0000       0.935056        25.4442 
 148   0.0000       0.940299        25.5868 
 149   0.0000       0.943260        25.6674 
 150   0.0000       0.962447        26.1895 
 151   0.0000       0.971907        26.4469 
 152   0.0000       0.982675        26.7399 
 153   0.0000       0.986126        26.8339 
 154   0.0000       1.008016        27.4295 
 155   0.0000       1.018643        27.7187 
 156   0.0000       1.044646        28.4263 
 157   0.0000       1.050888        28.5961 
 158   0.0000       1.060232        28.8504 
 159   0.0000       1.067023        29.0352 
 160   0.0000       1.072493        29.1840 
 161   0.0000       1.076379        29.2898 
 162   0.0000       1.080528        29.4027 
 163   0.0000       1.089095        29.6358 
 164   0.0000       1.095939        29.8220 
 165   0.0000       1.115776        30.3618 
 166   0.0000       1.119855        30.4728 
 167   0.0000       1.135356        30.8946 
 168   0.0000       1.143533        31.1171 
 169   0.0000       1.148739        31.2588 
 170   0.0000       1.153391        31.3854 
 171   0.0000       1.156891        31.4806 
 172   0.0000       1.163022        31.6474 
 173   0.0000       1.170433        31.8491 
 174   0.0000       1.180946        32.1352 
 175   0.0000       1.185943        32.2712 
 176   0.0000       1.189675        32.3727 
 177   0.0000       1.198402        32.6102 
 178   0.0000       1.206072        32.8189 
 179   0.0000       1.207484        32.8573 
 180   0.0000       1.211970        32.9794 
 181   0.0000       1.220946        33.2236 
 182   0.0000       1.236661        33.6513 
 183   0.0000       1.242298        33.8047 
 184   0.0000       1.257487        34.2180 
 185   0.0000       1.269478        34.5442 
 186   0.0000       1.270794        34.5801 
 187   0.0000       1.282768        34.9059 
 188   0.0000       1.297689        35.3119 
 189   0.0000       1.300045        35.3760 
 190   0.0000       1.315169        35.7876 
 191   0.0000       1.324606        36.0444 
 192   0.0000       1.335687        36.3459 
 193   0.0000       1.337033        36.3825 
 194   0.0000       1.354474        36.8571 
 195   0.0000       1.359599        36.9966 
 196   0.0000       1.374113        37.3915 
 197   0.0000       1.381730        37.5988 
 198   0.0000       1.394845        37.9557 
 199   0.0000       1.404926        38.2300 
 200   0.0000       1.422439        38.7065 
 201   0.0000       1.428737        38.8779 
 202   0.0000       1.451314        39.4923 
 203   0.0000       1.459195        39.7067 
 204   0.0000       1.467324        39.9279 
 205   0.0000       1.482186        40.3323 
 206   0.0000       1.491118        40.5754 
 207   0.0000       1.497100        40.7382 
 208   0.0000       1.498088        40.7651 
 209   0.0000       1.510955        41.1152 
 210   0.0000       1.524784        41.4915 
 211   0.0000       1.533574        41.7307 
 212   0.0000       1.551450        42.2171 
 213   0.0000       1.560180        42.4547 
 214   0.0000       1.565951        42.6117 
 215   0.0000       1.571312        42.7576 
 216   0.0000       1.579847        42.9898 
 217   0.0000       1.586855        43.1805 
 218   0.0000       1.589364        43.2488 
 219   0.0000       1.611025        43.8382 
 220   0.0000       1.618957        44.0541 
 221   0.0000       1.639438        44.6114 
 222   0.0000       1.644406        44.7466 
 223   0.0000       1.653134        44.9841 
 224   0.0000       1.666136        45.3379 
 225   0.0000       1.672609        45.5140 
 226   0.0000       1.691388        46.0250 
 227   0.0000       1.698330        46.2139 
 228   0.0000       1.710758        46.5521 
 229   0.0000       1.720608        46.8201 
 230   0.0000       1.743842        47.4524 
 231   0.0000       1.759701        47.8839 
 232   0.0000       1.773402        48.2567 
 233   0.0000       1.778517        48.3959 
 234   0.0000       1.794372        48.8274 
 235   0.0000       1.803526        49.0764 
 236   0.0000       1.825332        49.6698 
 237   0.0000       1.837640        50.0047 
 238   0.0000       1.848436        50.2985 
 239   0.0000       1.862257        50.6746 
 240   0.0000       1.869671        50.8763 
 241   0.0000       1.880443        51.1695 
 242   0.0000       1.886625        51.3377 
 243   0.0000       1.891033        51.4576 
 244   0.0000       1.905343        51.8470 
 245   0.0000       1.914974        52.1091 
 246   0.0000       1.918345        52.2008 
 247   0.0000       1.931410        52.5563 
 248   0.0000       1.937111        52.7115 
 249   0.0000       1.951613        53.1061 
 250   0.0000       1.966013        53.4979 
 251   0.0000       1.980066        53.8803 
 252   0.0000       1.990593        54.1668 
 253   0.0000       1.997564        54.3565 
 254   0.0000       2.015177        54.8357 
 255   0.0000       2.020783        54.9883 
 256   0.0000       2.031820        55.2886 
 257   0.0000       2.039674        55.5023 
 258   0.0000       2.055952        55.9453 
 259   0.0000       2.084574        56.7241 
 260   0.0000       2.093231        56.9597 
 261   0.0000       2.110869        57.4397 
 262   0.0000       2.118599        57.6500 
 263   0.0000       2.126554        57.8665 
 264   0.0000       2.157510        58.7088 
 265   0.0000       2.172525        59.1174 
 266   0.0000       2.173678        59.1488 
 267   0.0000       2.181506        59.3618 
 268   0.0000       2.210810        60.1592 
 269   0.0000       2.215936        60.2987 
 270   0.0000       2.224094        60.5207 
 271   0.0000       2.246162        61.1212 
 272   0.0000       2.269193        61.7479 
 273   0.0000       2.273601        61.8678 
 274   0.0000       2.284531        62.1653 
 275   0.0000       2.300652        62.6039 
 276   0.0000       2.314168        62.9717 
 277   0.0000       2.357885        64.1613 
 278   0.0000       2.375615        64.6438 
 279   0.0000       2.388071        64.9827 
 280   0.0000       2.408396        65.5358 
 281   0.0000       2.415248        65.7222 
 282   0.0000       2.444524        66.5189 
 283   0.0000       2.487895        67.6991 
 284   0.0000       2.496436        67.9315 
 285   0.0000       2.521433        68.6117 
 286   0.0000       2.551074        69.4183 
 287   0.0000       2.563623        69.7597 
 288   0.0000       2.580799        70.2271 
 289   0.0000       2.601907        70.8015 
 290   0.0000       2.611210        71.0546 
 291   0.0000       2.637915        71.7813 
 292   0.0000       2.647681        72.0471 
 293   0.0000       2.651786        72.1588 
 294   0.0000       2.667238        72.5792 
 295   0.0000       2.682543        72.9957 
 296   0.0000       2.691056        73.2273 
 297   0.0000       2.712058        73.7988 
 298   0.0000       2.730766        74.3079 
 299   0.0000       2.761897        75.1550 
 300   0.0000       2.801439        76.2310 
 301   0.0000       2.822698        76.8095 
 302   0.0000       2.847243        77.4774 
 303   0.0000       2.855308        77.6969 
 304   0.0000       2.872915        78.1760 
 305   0.0000       3.152619        85.7871 
 306   0.0000       3.163036        86.0706 
 307   0.0000       3.174884        86.3930 
 308   0.0000       3.199992        87.0762 
 309   0.0000       3.213096        87.4328 
 310   0.0000       3.223571        87.7178 
 311   0.0000       3.236762        88.0768 
 312   0.0000       3.261743        88.7565 
 313   0.0000       3.267098        88.9023 
 314   0.0000       3.283070        89.3369 
 315   0.0000       3.318763        90.3081 
 316   0.0000       3.328742        90.5797 
 317   0.0000       3.337432        90.8161 
 318   0.0000       3.358921        91.4009 
 319   0.0000       3.363414        91.5232 
 320   0.0000       3.370461        91.7149 
 321   0.0000       3.380909        91.9992 
 322   0.0000       3.381617        92.0185 
 323   0.0000       3.388888        92.2163 
 324   0.0000       3.406920        92.7070 
 325   0.0000       3.417671        92.9995 
 326   0.0000       3.419985        93.0625 
 327   0.0000       3.431760        93.3829 
 328   0.0000       3.478201        94.6466 
 329   0.0000       3.503204        95.3270 
 330   0.0000       3.512840        95.5892 
 331   0.0000       3.529283        96.0367 
 332   0.0000       3.533864        96.1613 
 333   0.0000       3.544886        96.4613 
 334   0.0000       3.573563        97.2416 
 335   0.0000       3.578238        97.3688 
 336   0.0000       3.589497        97.6752 
 337   0.0000       3.598296        97.9146 
 338   0.0000       3.608347        98.1881 
 339   0.0000       3.622273        98.5671 
 340   0.0000       3.636673        98.9589 
 341   0.0000       3.665667        99.7479 
 342   0.0000       3.677423       100.0678 
 343   0.0000       3.684216       100.2526 
 344   0.0000       3.712286       101.0164 
 345   0.0000       3.720850       101.2495 
 346   0.0000       3.748010       101.9886 
 347   0.0000       3.769225       102.5658 
 348   0.0000       3.777418       102.7888 
 349   0.0000       3.786746       103.0426 
 350   0.0000       3.805424       103.5509 
 351   0.0000       3.810990       103.7023 
 352   0.0000       3.822494       104.0154 
 353   0.0000       3.837343       104.4194 
 354   0.0000       3.845659       104.6457 
 355   0.0000       3.867105       105.2293 
 356   0.0000       3.876321       105.4801 
 357   0.0000       3.882303       105.6428 
 358   0.0000       3.891922       105.9046 
 359   0.0000       3.895204       105.9939 
 360   0.0000       3.907842       106.3378 
 361   0.0000       3.915676       106.5510 
 362   0.0000       3.918632       106.6314 
 363   0.0000       3.924290       106.7854 
 364   0.0000       3.939679       107.2041 
 365   0.0000       3.944610       107.3383 
 366   0.0000       3.952987       107.5662 
 367   0.0000       3.955858       107.6444 
 368   0.0000       3.966755       107.9409 
 369   0.0000       3.968531       107.9892 
 370   0.0000       3.972519       108.0977 
 371   0.0000       3.982543       108.3705 
 372   0.0000       3.986680       108.4831 
 373   0.0000       3.991918       108.6256 
 374   0.0000       4.000150       108.8496 
 375   0.0000       4.009984       109.1172 
 376   0.0000       4.016999       109.3081 
 377   0.0000       4.021176       109.4218 
 378   0.0000       4.028498       109.6210 
 379   0.0000       4.033512       109.7574 
 380   0.0000       4.047013       110.1248 
 381   0.0000       4.053130       110.2913 
 382   0.0000       4.069737       110.7432 
 383   0.0000       4.072605       110.8212 
 384   0.0000       4.083365       111.1140 
 385   0.0000       4.120375       112.1211 
 386   0.0000       4.132415       112.4487 
 387   0.0000       4.139026       112.6286 
 388   0.0000       4.143551       112.7517 
 389   0.0000       4.154138       113.0398 
 390   0.0000       4.156666       113.1086 
 391   0.0000       4.172679       113.5444 
 392   0.0000       4.197159       114.2105 
 393   0.0000       4.226923       115.0204 
 394   0.0000       4.243161       115.4623 
 395   0.0000       4.245941       115.5379 
 396   0.0000       4.268878       116.1621 
 397   0.0000       4.277497       116.3966 
 398   0.0000       4.283794       116.5680 
 399   0.0000       4.306404       117.1832 
 400   0.0000       4.315349       117.4266 
 401   0.0000       4.327497       117.7572 
 402   0.0000       4.337413       118.0270 
 403   0.0000       4.351948       118.4225 
 404   0.0000       4.360500       118.6552 
 405   0.0000       4.369558       118.9017 
 406   0.0000       4.388403       119.4145 
 407   0.0000       4.396790       119.6427 
 408   0.0000       4.408481       119.9609 
 409   0.0000       4.412865       120.0802 
 410   0.0000       4.449811       121.0855 
 411   0.0000       4.453576       121.1880 
 412   0.0000       4.459770       121.3565 
 413   0.0000       4.470867       121.6585 
 414   0.0000       4.479814       121.9019 
 415   0.0000       4.496031       122.3432 
 416   0.0000       4.502071       122.5076 
 417   0.0000       4.528924       123.2383 
 418   0.0000       4.529855       123.2636 
 419   0.0000       4.538189       123.4904 
 420   0.0000       4.548729       123.7772 
 421   0.0000       4.568638       124.3190 
 422   0.0000       4.573375       124.4479 
 423   0.0000       4.586812       124.8135 
 424   0.0000       4.590421       124.9117 
 425   0.0000       4.606418       125.3470 
 426   0.0000       4.614151       125.5574 
 427   0.0000       4.628938       125.9598 
 428   0.0000       4.637985       126.2060 
 429   0.0000       4.645065       126.3986 
 430   0.0000       4.660071       126.8070 
 431   0.0000       4.661336       126.8414 
 432   0.0000       4.669717       127.0695 
 433   0.0000       4.673011       127.1591 
 434   0.0000       4.676364       127.2503 
 435   0.0000       4.687423       127.5513 
 436   0.0000       4.700611       127.9101 
 437   0.0000       4.708045       128.1124 
 438   0.0000       4.710369       128.1757 
 439   0.0000       4.725701       128.5929 
 440   0.0000       4.734017       128.8192 
 441   0.0000       4.742317       129.0450 
 442   0.0000       4.748565       129.2150 
 443   0.0000       4.751536       129.2959 
 444   0.0000       4.759287       129.5068 
 445   0.0000       4.760544       129.5410 
 446   0.0000       4.778202       130.0215 
 447   0.0000       4.784401       130.1902 
 448   0.0000       4.791126       130.3732 
 449   0.0000       4.796161       130.5102 
 450   0.0000       4.804027       130.7242 
 451   0.0000       4.810469       130.8995 
 452   0.0000       4.814460       131.0081 
 453   0.0000       4.819583       131.1475 
 454   0.0000       4.832525       131.4997 
 455   0.0000       4.837416       131.6328 
 456   0.0000       4.845490       131.8525 
 457   0.0000       4.856550       132.1534 
 458   0.0000       4.875786       132.6769 
 459   0.0000       4.888177       133.0140 
 460   0.0000       4.896952       133.2528 
 461   0.0000       4.907076       133.5283 
 462   0.0000       4.910940       133.6335 
 463   0.0000       4.918425       133.8372 
 464   0.0000       4.932464       134.2192 
 465   0.0000       4.941446       134.4636 
 466   0.0000       4.943674       134.5242 
 467   0.0000       4.947333       134.6238 
 468   0.0000       4.960696       134.9874 
 469   0.0000       4.975693       135.3955 
 470   0.0000       4.986766       135.6968 
 471   0.0000       4.999574       136.0453 
 472   0.0000       5.012648       136.4011 
 473   0.0000       5.019219       136.5799 
 474   0.0000       5.029784       136.8674 
 475   0.0000       5.033178       136.9597 
 476   0.0000       5.052067       137.4737 
 477   0.0000       5.072270       138.0235 
 478   0.0000       5.079477       138.2196 
 479   0.0000       5.087347       138.4337 
 480   0.0000       5.114730       139.1789 
 481   0.0000       5.116271       139.2208 
 482   0.0000       5.127028       139.5135 
 483   0.0000       5.151488       140.1791 
 484   0.0000       5.151569       140.1813 
 485   0.0000       5.157931       140.3544 
 486   0.0000       5.180422       140.9664 
 487   0.0000       5.188966       141.1989 
 488   0.0000       5.203603       141.5972 
 489   0.0000       5.209668       141.7623 
 490   0.0000       5.226876       142.2305 
 491   0.0000       5.235597       142.4678 
 492   0.0000       5.243536       142.6839 
 493   0.0000       5.269759       143.3974 
 494   0.0000       5.290350       143.9577 
 495   0.0000       5.308111       144.4411 
 496   0.0000       5.336901       145.2245 
 497   0.0000       5.353885       145.6866 
 498   0.0000       5.373604       146.2232 
 499   0.0000       5.405547       147.0924 
 500   0.0000       5.415133       147.3533 
 501   0.0000       5.422131       147.5437 
 502   0.0000       5.456233       148.4717 
 503   0.0000       5.487952       149.3348 
 504   0.0000       5.489297       149.3714 
 505   0.0000       5.501112       149.6929 
 506   0.0000       5.510933       149.9601 
 507   0.0000       5.514049       150.0449 
 508   0.0000       5.525161       150.3473 
 509   0.0000       5.536255       150.6492 
 510   0.0000       5.550798       151.0449 
 511   0.0000       5.558370       151.2509 
 512   0.0000       5.566665       151.4767 
 513   0.0000       5.583233       151.9275 
 514   0.0000       5.588207       152.0628 
 515   0.0000       5.613700       152.7565 
 516   0.0000       5.617101       152.8491 
 517   0.0000       5.642722       153.5463 
 518   0.0000       5.668307       154.2425 
 519   0.0000       5.672303       154.3512 
 520   0.0000       5.693938       154.9399 
 521   0.0000       5.705880       155.2649 
 522   0.0000       5.716507       155.5541 
 523   0.0000       5.728838       155.8896 
 524   0.0000       5.738350       156.1484 
 525   0.0000       5.751682       156.5112 
 526   0.0000       5.806512       158.0032 
 527   0.0000       5.818508       158.3296 
 528   0.0000       5.825922       158.5314 
 529   0.0000       5.830374       158.6525 
 530   0.0000       5.848436       159.1440 
 531   0.0000       5.861805       159.5078 
 532   0.0000       5.866321       159.6307 
 533   0.0000       5.877497       159.9348 
 534   0.0000       5.878969       159.9749 
 535   0.0000       5.889804       160.2697 
 536   0.0000       5.899901       160.5445 
 537   0.0000       5.904085       160.6583 
 538   0.0000       5.911278       160.8541 
 539   0.0000       5.914246       160.9348 
 540   0.0000       5.932526       161.4322 
 541   0.0000       5.938667       161.5993 
 542   0.0000       5.940484       161.6488 
 543   0.0000       5.959124       162.1560 
 544   0.0000       5.969068       162.4266 
 545   0.0000       5.970999       162.4792 
 546   0.0000       5.984314       162.8415 
 547   0.0000       6.018208       163.7638 
 548   0.0000       6.024714       163.9408 
 549   0.0000       6.036419       164.2593 
 550   0.0000       6.047372       164.5574 
 551   0.0000       6.050217       164.6348 
 552   0.0000       6.072114       165.2306 
 553   0.0000       6.075788       165.3306 
 554   0.0000       6.084851       165.5772 
 555   0.0000       6.104164       166.1027 
 556   0.0000       6.139804       167.0726 
 557   0.0000       6.167396       167.8234 
 558   0.0000       6.173312       167.9844 
 559   0.0000       6.184448       168.2874 
 560   0.0000       6.196014       168.6021 
 561   0.0000       6.226844       169.4410 
 562   0.0000       6.237135       169.7211 
 563   0.0000       6.248065       170.0185 
 564   0.0000       6.256278       170.2420 
 565   0.0000       6.259382       170.3264 
 566   0.0000       6.275905       170.7760 
 567   0.0000       6.282373       170.9521 
 568   0.0000       6.289293       171.1404 
 569   0.0000       6.316032       171.8680 
 570   0.0000       6.316689       171.8858 
[...]
      f-3     :     0.001801

SPIN
  0 C s       :     0.000232  s :     0.000232
      pz      :     0.000065  p :     0.000101
      px      :    -0.000054
      py      :     0.000090
      dz2     :     0.000001  d :    -0.000094
      dxz     :    -0.000005
      dyz     :    -0.000073
      dx2y2   :     0.000029
      dxy     :    -0.000045
      f0      :    -0.000000  f :     0.000026
      f+1     :    -0.000001
      f-1     :     0.000001
      f+2     :     0.000005
      f-2     :    -0.000004
      f+3     :    -0.000001
      f-3     :     0.000025
  1 C s       :    -0.000235  s :    -0.000235
      pz      :     0.001265  p :     0.002401
      px      :     0.000163
      py      :     0.000973
      dz2     :    -0.000010  d :     0.001755
      dxz     :    -0.000083
      dyz     :     0.000585
      dx2y2   :     0.000001
      dxy     :     0.001262
      f0      :     0.000007  f :     0.000219
      f+1     :     0.000016
      f-1     :     0.000016
      f+2     :     0.000034
      f-2     :     0.000008
      f+3     :     0.000138
      f-3     :     0.000000
  2 C s       :    -0.000227  s :    -0.000227
      pz      :     0.001214  p :     0.002355
      px      :     0.000103
      py      :     0.001037
      dz2     :    -0.000004  d :     0.001788
      dxz     :    -0.000085
      dyz     :     0.000617
      dx2y2   :     0.000020
      dxy     :     0.001240
      f0      :     0.000007  f :     0.000221
      f+1     :     0.000018
      f-1     :     0.000016
      f+2     :     0.000038
      f-2     :     0.000006
      f+3     :     0.000134
      f-3     :     0.000003
  3 H s       :    -0.000063  s :    -0.000063
      pz      :     0.000004  p :    -0.000016
      px      :    -0.000016
      py      :    -0.000004
      dz2     :     0.000001  d :     0.000002
      dxz     :    -0.000000
      dyz     :     0.000002
      dx2y2   :    -0.000000
      dxy     :    -0.000000
  4 H s       :     0.000034  s :     0.000034
      pz      :    -0.000000  p :    -0.000011
      px      :    -0.000001
      py      :    -0.000010
      dz2     :    -0.000000  d :     0.000002
      dxz     :    -0.000000
      dyz     :    -0.000001
      dx2y2   :     0.000004
      dxy     :    -0.000000
  5 C s       :     0.007269  s :     0.007269
      pz      :     0.023868  p :     0.052943
      px      :     0.026603
      py      :     0.002472
      dz2     :     0.002144  d :     0.007180
      dxz     :     0.002779
      dyz     :     0.000274
      dx2y2   :     0.000483
      dxy     :     0.001501
      f0      :    -0.000004  f :     0.000593
      f+1     :     0.000293
      f-1     :     0.000050
      f+2     :     0.000216
      f-2     :     0.000004
      f+3     :    -0.000009
      f-3     :     0.000043
  6 H s       :     0.000181  s :     0.000181
      pz      :    -0.000041  p :     0.000503
      px      :    -0.000008
      py      :     0.000553
      dz2     :     0.000002  d :     0.000021
      dxz     :     0.000003
      dyz     :     0.000005
      dx2y2   :     0.000005
      dxy     :     0.000006
  7 H s       :     0.000568  s :     0.000568
      pz      :     0.000204  p :     0.000420
      px      :     0.000252
      py      :    -0.000036
      dz2     :    -0.000006  d :    -0.000007
      dxz     :    -0.000001
      dyz     :     0.000002
      dx2y2   :    -0.000004
      dxy     :     0.000003
  8 C s       :     0.007302  s :     0.007302
      pz      :     0.024624  p :     0.053561
      px      :     0.025915
      py      :     0.003022
      dz2     :     0.002175  d :     0.007132
      dxz     :     0.002723
      dyz     :     0.000175
      dx2y2   :     0.000361
      dxy     :     0.001698
      f0      :     0.000001  f :     0.000593
      f+1     :     0.000286
      f-1     :     0.000056
      f+2     :     0.000207
      f-2     :     0.000007
      f+3     :    -0.000015
      f-3     :     0.000051
  9 H s       :     0.000516  s :     0.000516
      pz      :     0.000196  p :     0.000398
      px      :     0.000232
      py      :    -0.000030
      dz2     :    -0.000006  d :    -0.000007
      dxz     :    -0.000001
      dyz     :     0.000002
      dx2y2   :    -0.000004
      dxy     :     0.000002
 10 H s       :     0.000218  s :     0.000218
      pz      :    -0.000041  p :     0.000510
      px      :    -0.000009
      py      :     0.000560
      dz2     :     0.000002  d :     0.000021
      dxz     :     0.000003
      dyz     :     0.000006
      dx2y2   :     0.000005
      dxy     :     0.000005
 11 P s       :     0.054383  s :     0.054383
      pz      :     0.319678  p :     0.409562
      px      :    -0.005058
      py      :     0.094942
      dz2     :     0.001705  d :     0.060675
      dxz     :     0.000641
      dyz     :     0.054524
      dx2y2   :     0.005331
      dxy     :    -0.001526
      f0      :     0.000600  f :     0.008913
      f+1     :     0.000053
      f-1     :     0.000659
      f+2     :     0.006172
      f-2     :    -0.000081
      f+3     :     0.000011
      f-3     :     0.001499
 12 C s       :     0.001210  s :     0.001210
      pz      :     0.000340  p :     0.006665
      px      :     0.006108
      py      :     0.000217
      dz2     :     0.000517  d :     0.000616
      dxz     :     0.000333
      dyz     :    -0.000005
      dx2y2   :    -0.000168
      dxy     :    -0.000061
      f0      :     0.000099  f :     0.000196
      f+1     :     0.000043
      f-1     :     0.000002
      f+2     :     0.000026
      f-2     :     0.000001
      f+3     :     0.000003
      f-3     :     0.000022
 13 H s       :     0.003506  s :     0.003506
      pz      :     0.000440  p :     0.000603
      px      :     0.000140
      py      :     0.000022
      dz2     :     0.000021  d :     0.000075
      dxz     :     0.000010
      dyz     :     0.000022
      dx2y2   :     0.000026
      dxy     :    -0.000004
 14 H s       :    -0.000459  s :    -0.000459
      pz      :     0.000021  p :     0.000002
      px      :    -0.000084
      py      :     0.000066
      dz2     :    -0.000007  d :    -0.000003
      dxz     :    -0.000000
      dyz     :     0.000000
      dx2y2   :     0.000000
      dxy     :     0.000004
 15 H s       :     0.000303  s :     0.000303
      pz      :    -0.000022  p :     0.000223
      px      :     0.000224
      py      :     0.000021
      dz2     :    -0.000000  d :     0.000013
      dxz     :     0.000008
      dyz     :     0.000001
      dx2y2   :    -0.000003
      dxy     :     0.000007
 16 C s       :     0.001294  s :     0.001294
      pz      :     0.003159  p :     0.009037
      px      :     0.002793
      py      :     0.003085
      dz2     :     0.000209  d :     0.002951
      dxz     :     0.001666
      dyz     :    -0.000103
      dx2y2   :     0.001246
      dxy     :    -0.000067
      f0      :     0.000035  f :     0.000249
      f+1     :     0.000010
      f-1     :     0.000005
      f+2     :     0.000037
      f-2     :     0.000054
      f+3     :     0.000001
      f-3     :     0.000107
 17 H s       :     0.000131  s :     0.000131
      pz      :     0.000096  p :     0.000123
      px      :     0.000019
      py      :     0.000008
      dz2     :     0.000017  d :     0.000096
      dxz     :     0.000009
      dyz     :     0.000007
      dx2y2   :     0.000045
      dxy     :     0.000018
 18 H s       :     0.000190  s :     0.000190
      pz      :     0.000291  p :     0.000615
      px      :     0.000354
      py      :    -0.000031
      dz2     :     0.000040  d :     0.000060
      dxz     :    -0.000000
      dyz     :     0.000022
      dx2y2   :     0.000000
      dxy     :    -0.000002
 19 H s       :     0.002363  s :     0.002363
      pz      :     0.000547  p :     0.001613
      px      :     0.000254
      py      :     0.000812
      dz2     :     0.000012  d :     0.000096
      dxz     :     0.000010
      dyz     :     0.000018
      dx2y2   :     0.000011
      dxy     :     0.000046
 20 C s       :     0.001225  s :     0.001225
      pz      :     0.000267  p :     0.006715
      px      :     0.006136
      py      :     0.000312
      dz2     :     0.000470  d :     0.000590
      dxz     :     0.000379
      dyz     :    -0.000007
      dx2y2   :    -0.000197
      dxy     :    -0.000054
      f0      :     0.000102  f :     0.000193
      f+1     :     0.000039
      f-1     :     0.000001
      f+2     :     0.000029
      f-2     :    -0.000000
      f+3     :     0.000005
      f-3     :     0.000018
 21 H s       :     0.003556  s :     0.003556
      pz      :     0.000446  p :     0.000646
      px      :     0.000173
      py      :     0.000027
      dz2     :     0.000024  d :     0.000079
      dxz     :     0.000010
      dyz     :     0.000021
      dx2y2   :     0.000027
      dxy     :    -0.000004
 22 H s       :     0.000293  s :     0.000293
      pz      :    -0.000025  p :     0.000230
      px      :     0.000220
      py      :     0.000034
      dz2     :    -0.000000  d :     0.000013
      dxz     :     0.000008
      dyz     :     0.000000
      dx2y2   :    -0.000003
      dxy     :     0.000008
 23 H s       :    -0.000459  s :    -0.000459
      pz      :     0.000023  p :     0.000015
      px      :    -0.000086
      py      :     0.000077
      dz2     :    -0.000006  d :    -0.000002
      dxz     :    -0.000001
      dyz     :     0.000000
      dx2y2   :    -0.000000
      dxy     :     0.000005
 24 C s       :     0.001287  s :     0.001287
      pz      :     0.003146  p :     0.008942
      px      :     0.002525
      py      :     0.003271
      dz2     :     0.000183  d :     0.002950
      dxz     :     0.001669
      dyz     :    -0.000103
      dx2y2   :     0.001214
      dxy     :    -0.000014
      f0      :     0.000035  f :     0.000245
      f+1     :     0.000011
      f-1     :     0.000004
      f+2     :     0.000031
      f-2     :     0.000057
      f+3     :    -0.000002
      f-3     :     0.000108
 25 H s       :     0.000099  s :     0.000099
      pz      :     0.000093  p :     0.000124
      px      :     0.000013
      py      :     0.000019
      dz2     :     0.000018  d :     0.000097
      dxz     :     0.000009
      dyz     :     0.000007
      dx2y2   :     0.000038
      dxy     :     0.000024
 26 H s       :     0.002387  s :     0.002387
      pz      :     0.000549  p :     0.001598
      px      :     0.000211
      py      :     0.000839
      dz2     :     0.000012  d :     0.000094
      dxz     :     0.000009
      dyz     :     0.000017
      dx2y2   :     0.000006
      dxy     :     0.000051
 27 H s       :     0.000244  s :     0.000244
      pz      :     0.000293  p :     0.000623
      px      :     0.000359
      py      :    -0.000029
      dz2     :     0.000037  d :     0.000058
      dxz     :     0.000001
      dyz     :     0.000022
      dx2y2   :     0.000001
      dxy     :    -0.000002
 28 O s       :     0.004912  s :     0.004912
      pz      :     0.202685  p :     0.248163
      px      :     0.002375
      py      :     0.043102
      dz2     :     0.000029  d :     0.001131
      dxz     :    -0.000016
      dyz     :     0.001010
      dx2y2   :     0.000241
      dxy     :    -0.000133
      f0      :     0.000071  f :     0.000247
      f+1     :    -0.000006
      f-1     :     0.000003
      f+2     :     0.000140
      f-2     :    -0.000005
      f+3     :    -0.000006
      f-3     :     0.000050


                      *****************************
                      * MAYER POPULATION ANALYSIS *
                      *****************************

  NA   - Mulliken gross atomic population
  ZA   - Total nuclear charge
  QA   - Mulliken gross atomic charge
  VA   - Mayer's total valence
  BVA  - Mayer's bonded valence
  FA   - Mayer's free valence

  ATOM       NA         ZA         QA         VA         BVA        FA
  0 C      6.0028     6.0000    -0.0028     3.8623     3.8623     0.0000
  1 C      6.0842     6.0000    -0.0842     3.8270     3.8270    -0.0000
  2 C      6.0810     6.0000    -0.0810     3.8253     3.8254    -0.0000
  3 H      0.9659     1.0000     0.0341     1.0177     1.0177     0.0000
  4 H      0.9894     1.0000     0.0106     1.0143     1.0143    -0.0000
  5 C      6.0691     6.0000    -0.0691     3.8341     3.8267     0.0074
  6 H      0.9693     1.0000     0.0307     1.0317     1.0317     0.0000
  7 H      0.9663     1.0000     0.0337     1.0180     1.0180     0.0000
  8 C      6.0696     6.0000    -0.0696     3.8325     3.8249     0.0075
  9 H      0.9664     1.0000     0.0336     1.0169     1.0169     0.0000
 10 H      0.9700     1.0000     0.0300     1.0315     1.0315     0.0000
 11 P     14.4393    15.0000     0.5607     3.9906     3.5412     0.4493
 12 C      6.0885     6.0000    -0.0885     3.9228     3.9228     0.0001
 13 H      0.9726     1.0000     0.0274     1.0198     1.0198     0.0000
 14 H      0.9832     1.0000     0.0168     1.0149     1.0149     0.0000
 15 H      0.9487     1.0000     0.0513     1.0220     1.0220    -0.0000
 16 C      6.0159     6.0000    -0.0159     3.9069     3.9065     0.0004
 17 H      0.9882     1.0000     0.0118     1.0040     1.0040     0.0000
 18 H      0.9401     1.0000     0.0599     1.0190     1.0190     0.0000
 19 H      0.9869     1.0000     0.0131     1.0113     1.0113     0.0000
 20 C      6.0901     6.0000    -0.0901     3.9230     3.9230     0.0001
 21 H      0.9730     1.0000     0.0270     1.0202     1.0202     0.0000
 22 H      0.9481     1.0000     0.0519     1.0221     1.0221    -0.0000
 23 H      0.9829     1.0000     0.0171     1.0151     1.0151     0.0000
 24 C      6.0140     6.0000    -0.0140     3.9029     3.9025     0.0004
 25 H      0.9903     1.0000     0.0097     1.0040     1.0040     0.0000
 26 H      0.9865     1.0000     0.0135     1.0115     1.0115     0.0000
 27 H      0.9391     1.0000     0.0609     1.0190     1.0190     0.0000
 28 O      8.5783     8.0000    -0.5783     1.9617     1.8940     0.0677

  Mayer bond orders larger than 0.100000
B(  0-C ,  1-C ) :   0.9610 B(  0-C ,  2-C ) :   0.9617 B(  0-C ,  3-H ) :   1.0140 
B(  0-C ,  4-H ) :   1.0111 B(  1-C ,  5-C ) :   0.9357 B(  1-C ,  6-H ) :   1.0191 
B(  1-C ,  7-H ) :   1.0140 B(  2-C ,  8-C ) :   0.9333 B(  2-C ,  9-H ) :   1.0143 
B(  2-C , 10-H ) :   1.0193 B(  5-C , 11-P ) :   0.8886 B(  5-C , 20-C ) :   0.9863 
B(  5-C , 24-C ) :   0.9693 B(  8-C , 11-P ) :   0.8877 B(  8-C , 12-C ) :   0.9864 
B(  8-C , 16-C ) :   0.9703 B( 11-P , 28-O ) :   1.7714 B( 12-C , 13-H ) :   1.0069 
B( 12-C , 14-H ) :   1.0026 B( 12-C , 15-H ) :   1.0084 B( 16-C , 17-H ) :   0.9893 
B( 16-C , 18-H ) :   1.0041 B( 16-C , 19-H ) :   1.0049 B( 20-C , 21-H ) :   1.0070 
B( 20-C , 22-H ) :   1.0084 B( 20-C , 23-H ) :   1.0028 B( 24-C , 25-H ) :   0.9894 
B( 24-C , 26-H ) :   1.0047 B( 24-C , 27-H ) :   1.0041 

-------
TIMINGS
-------

Total SCF time: 0 days 0 hours 0 min 55 sec 

Total time                  ....      55.706 sec
Sum of individual times     ....      54.575 sec  ( 98.0%)

Fock matrix formation       ....      44.374 sec  ( 79.7%)
  Split-RI-J                ....       3.635 sec  (  8.2% of F)
  Chain of spheres X        ....      32.508 sec  ( 73.3% of F)
  XC integration            ....       7.421 sec  ( 16.7% of F)
    Basis function eval.    ....       1.509 sec  ( 20.3% of XC)
    Density eval.           ....       2.658 sec  ( 35.8% of XC)
    XC-Functional eval.     ....       0.207 sec  (  2.8% of XC)
    XC-Potential eval.      ....       1.988 sec  ( 26.8% of XC)
Diagonalization             ....       2.032 sec  (  3.6%)
Density matrix formation    ....       0.066 sec  (  0.1%)
Population analysis         ....       0.240 sec  (  0.4%)
Initial guess               ....       0.273 sec  (  0.5%)
Orbital Transformation      ....       0.000 sec  (  0.0%)
Orbital Orthonormalization  ....       0.207 sec  (  0.4%)
DIIS solution               ....       0.816 sec  (  1.5%)
Grid generation             ....       6.774 sec  ( 12.2%)


-------------------------------------------------------------------------------
                          DFT DISPERSION CORRECTION                            
                                                                               
                              DFTD3 V3.1  Rev 1                                
                          USING Becke-Johnson damping                          
-------------------------------------------------------------------------------
The WB97X-D3BJ functional is recognized
Active option DFTDOPT                   ...         4   

molecular C6(AA) [au] = 7325.510657 


            DFT-D V3
 parameters
 s6 scaling factor         :     1.0000 
 a1 scaling factor         :     0.0000 
 s8 scaling factor         :     0.2641 
 a2 scaling factor         :     5.4959 
 ad hoc parameters k1-k3   :    16.0000     1.3333    -4.0000 

 Edisp/kcal,au: -40.860671049409  -0.065115617181 
 E6   /kcal   : -33.441908361 
 E8   /kcal   :  -7.418762689 
 % E8         :  18.156242905 

-------------------------   ----------------
Dispersion correction           -0.065115617
-------------------------   ----------------


-------------------------   --------------------
FINAL SINGLE POINT ENERGY      -770.822148074083
-------------------------   --------------------

                                *** OPTIMIZATION RUN DONE ***

                            ***************************************
                            *     ORCA property calculations      *
                            ***************************************

                                    ---------------------
                                    Active property flags
                                    ---------------------
   (+) Dipole Moment


------------------------------------------------------------------------------
                       ORCA ELECTRIC PROPERTIES CALCULATION
------------------------------------------------------------------------------

Dipole Moment Calculation                       ... on
Quadrupole Moment Calculation                   ... off
Polarizability Calculation                      ... off
GBWName                                         ... phosphorous_2.gbw
Electron density file                           ... phosphorous_2.scfp
The origin for moment calculation is the CENTER OF MASS  = (-3.317503,  1.031089  0.461385)

-------------
DIPOLE MOMENT
-------------
                                X             Y             Z
Electronic contribution:      0.10599      -4.49445       6.79070
Nuclear contribution   :     -0.13359       5.84058      -7.62792
                        -----------------------------------------
Total Dipole Moment    :     -0.02760       1.34614      -0.83722
                        -----------------------------------------
Magnitude (a.u.)       :      1.58549
Magnitude (Debye)      :      4.02999



--------------------
Rotational spectrum 
--------------------
 
Rotational constants in cm-1:     0.044208     0.030049     0.023755 
Rotational constants in MHz :  1325.336443   900.847362   712.168015 

 Dipole components along the rotational axes: 
x,y,z [a.u.] :     0.004759     1.576312     0.170270 
x,y,z [Debye]:     0.012096     4.006668     0.432793 

 

Timings for individual modules:

Sum of individual times         ...     1265.788 sec (=  21.096 min)
GTO integral calculation        ...       41.188 sec (=   0.686 min)   3.3 %
SCF iterations                  ...     1009.100 sec (=  16.818 min)  79.7 %
SCF Gradient evaluation         ...      212.973 sec (=   3.550 min)  16.8 %
Geometry relaxation             ...        2.526 sec (=   0.042 min)   0.2 %
                             ****ORCA TERMINATED NORMALLY****
TOTAL RUN TIME: 0 days 0 hours 21 minutes 10 seconds 71 msec
